<?xml version="1.0"?>
<VTKFile type="UnstructuredGrid"  version="0.1"  >
<UnstructuredGrid>
<Piece  NumberOfPoints="4096" NumberOfCells="20250">
<Points>
<DataArray  type="Float64"  NumberOfComponents="3"  format="ascii">0 0 0  0.1333333333333333 0 0  0.2666666666666667 0 0  0.4 0 0  0.5333333333333333 0 0  0.6666666666666666 0 0  0.8 0 0  0.9333333333333333 0 0  1.066666666666667 0 0  1.2 0 0  1.333333333333333 0 0  1.466666666666667 0 0  1.6 0 0  1.733333333333333 0 0  1.866666666666667 0 0  2 0 0  0 0.1333333333333333 0  0.1333333333333333 0.1333333333333333 0  0.2666666666666667 0.1333333333333333 0  0.4 0.1333333333333333 0  0.5333333333333333 0.1333333333333333 0  0.6666666666666666 0.1333333333333333 0  0.8 0.1333333333333333 0  0.9333333333333333 0.1333333333333333 0  1.066666666666667 0.1333333333333333 0  1.2 0.1333333333333333 0  1.333333333333333 0.1333333333333333 0  1.466666666666667 0.1333333333333333 0  1.6 0.1333333333333333 0  1.733333333333333 0.1333333333333333 0  1.866666666666667 0.1333333333333333 0  2 0.1333333333333333 0  0 0.2666666666666667 0  0.1333333333333333 0.2666666666666667 0  0.2666666666666667 0.2666666666666667 0  0.4 0.2666666666666667 0  0.5333333333333333 0.2666666666666667 0  0.6666666666666666 0.2666666666666667 0  0.8 0.2666666666666667 0  0.9333333333333333 0.2666666666666667 0  1.066666666666667 0.2666666666666667 0  1.2 0.2666666666666667 0  1.333333333333333 0.2666666666666667 0  1.466666666666667 0.2666666666666667 0  1.6 0.2666666666666667 0  1.733333333333333 0.2666666666666667 0  1.866666666666667 0.2666666666666667 0  2 0.2666666666666667 0  0 0.4 0  0.1333333333333333 0.4 0  0.2666666666666667 0.4 0  0.4 0.4 0  0.5333333333333333 0.4 0  0.6666666666666666 0.4 0  0.8 0.4 0  0.9333333333333333 0.4 0  1.066666666666667 0.4 0  1.2 0.4 0  1.333333333333333 0.4 0  1.466666666666667 0.4 0  1.6 0.4 0  1.733333333333333 0.4 0  1.866666666666667 0.4 0  2 0.4 0  0 0.5333333333333333 0  0.1333333333333333 0.5333333333333333 0  0.2666666666666667 0.5333333333333333 0  0.4 0.5333333333333333 0  0.5333333333333333 0.5333333333333333 0  0.6666666666666666 0.5333333333333333 0  0.8 0.5333333333333333 0  0.9333333333333333 0.5333333333333333 0  1.066666666666667 0.5333333333333333 0  1.2 0.5333333333333333 0  1.333333333333333 0.5333333333333333 0  1.466666666666667 0.5333333333333333 0  1.6 0.5333333333333333 0  1.733333333333333 0.5333333333333333 0  1.866666666666667 0.5333333333333333 0  2 0.5333333333333333 0  0 0.6666666666666666 0  0.1333333333333333 0.6666666666666666 0  0.2666666666666667 0.6666666666666666 0  0.4 0.6666666666666666 0  0.5333333333333333 0.6666666666666666 0  0.6666666666666666 0.6666666666666666 0  0.8 0.6666666666666666 0  0.9333333333333333 0.6666666666666666 0  1.066666666666667 0.6666666666666666 0  1.2 0.6666666666666666 0  1.333333333333333 0.6666666666666666 0  1.466666666666667 0.6666666666666666 0  1.6 0.6666666666666666 0  1.733333333333333 0.6666666666666666 0  1.866666666666667 0.6666666666666666 0  2 0.6666666666666666 0  0 0.8 0  0.1333333333333333 0.8 0  0.2666666666666667 0.8 0  0.4 0.8 0  0.5333333333333333 0.8 0  0.6666666666666666 0.8 0  0.8 0.8 0  0.9333333333333333 0.8 0  1.066666666666667 0.8 0  1.2 0.8 0  1.333333333333333 0.8 0  1.466666666666667 0.8 0  1.6 0.8 0  1.733333333333333 0.8 0  1.866666666666667 0.8 0  2 0.8 0  0 0.9333333333333333 0  0.1333333333333333 0.9333333333333333 0  0.2666666666666667 0.9333333333333333 0  0.4 0.9333333333333333 0  0.5333333333333333 0.9333333333333333 0  0.6666666666666666 0.9333333333333333 0  0.8 0.9333333333333333 0  0.9333333333333333 0.9333333333333333 0  1.066666666666667 0.9333333333333333 0  1.2 0.9333333333333333 0  1.333333333333333 0.9333333333333333 0  1.466666666666667 0.9333333333333333 0  1.6 0.9333333333333333 0  1.733333333333333 0.9333333333333333 0  1.866666666666667 0.9333333333333333 0  2 0.9333333333333333 0  0 1.066666666666667 0  0.1333333333333333 1.066666666666667 0  0.2666666666666667 1.066666666666667 0  0.4 1.066666666666667 0  0.5333333333333333 1.066666666666667 0  0.6666666666666666 1.066666666666667 0  0.8 1.066666666666667 0  0.9333333333333333 1.066666666666667 0  1.066666666666667 1.066666666666667 0  1.2 1.066666666666667 0  1.333333333333333 1.066666666666667 0  1.466666666666667 1.066666666666667 0  1.6 1.066666666666667 0  1.733333333333333 1.066666666666667 0  1.866666666666667 1.066666666666667 0  2 1.066666666666667 0  0 1.2 0  0.1333333333333333 1.2 0  0.2666666666666667 1.2 0  0.4 1.2 0  0.5333333333333333 1.2 0  0.6666666666666666 1.2 0  0.8 1.2 0  0.9333333333333333 1.2 0  1.066666666666667 1.2 0  1.2 1.2 0  1.333333333333333 1.2 0  1.466666666666667 1.2 0  1.6 1.2 0  1.733333333333333 1.2 0  1.866666666666667 1.2 0  2 1.2 0  0 1.333333333333333 0  0.1333333333333333 1.333333333333333 0  0.2666666666666667 1.333333333333333 0  0.4 1.333333333333333 0  0.5333333333333333 1.333333333333333 0  0.6666666666666666 1.333333333333333 0  0.8 1.333333333333333 0  0.9333333333333333 1.333333333333333 0  1.066666666666667 1.333333333333333 0  1.2 1.333333333333333 0  1.333333333333333 1.333333333333333 0  1.466666666666667 1.333333333333333 0  1.6 1.333333333333333 0  1.733333333333333 1.333333333333333 0  1.866666666666667 1.333333333333333 0  2 1.333333333333333 0  0 1.466666666666667 0  0.1333333333333333 1.466666666666667 0  0.2666666666666667 1.466666666666667 0  0.4 1.466666666666667 0  0.5333333333333333 1.466666666666667 0  0.6666666666666666 1.466666666666667 0  0.8 1.466666666666667 0  0.9333333333333333 1.466666666666667 0  1.066666666666667 1.466666666666667 0  1.2 1.466666666666667 0  1.333333333333333 1.466666666666667 0  1.466666666666667 1.466666666666667 0  1.6 1.466666666666667 0  1.733333333333333 1.466666666666667 0  1.866666666666667 1.466666666666667 0  2 1.466666666666667 0  0 1.6 0  0.1333333333333333 1.6 0  0.2666666666666667 1.6 0  0.4 1.6 0  0.5333333333333333 1.6 0  0.6666666666666666 1.6 0  0.8 1.6 0  0.9333333333333333 1.6 0  1.066666666666667 1.6 0  1.2 1.6 0  1.333333333333333 1.6 0  1.466666666666667 1.6 0  1.6 1.6 0  1.733333333333333 1.6 0  1.866666666666667 1.6 0  2 1.6 0  0 1.733333333333333 0  0.1333333333333333 1.733333333333333 0  0.2666666666666667 1.733333333333333 0  0.4 1.733333333333333 0  0.5333333333333333 1.733333333333333 0  0.6666666666666666 1.733333333333333 0  0.8 1.733333333333333 0  0.9333333333333333 1.733333333333333 0  1.066666666666667 1.733333333333333 0  1.2 1.733333333333333 0  1.333333333333333 1.733333333333333 0  1.466666666666667 1.733333333333333 0  1.6 1.733333333333333 0  1.733333333333333 1.733333333333333 0  1.866666666666667 1.733333333333333 0  2 1.733333333333333 0  0 1.866666666666667 0  0.1333333333333333 1.866666666666667 0  0.2666666666666667 1.866666666666667 0  0.4 1.866666666666667 0  0.5333333333333333 1.866666666666667 0  0.6666666666666666 1.866666666666667 0  0.8 1.866666666666667 0  0.9333333333333333 1.866666666666667 0  1.066666666666667 1.866666666666667 0  1.2 1.866666666666667 0  1.333333333333333 1.866666666666667 0  1.466666666666667 1.866666666666667 0  1.6 1.866666666666667 0  1.733333333333333 1.866666666666667 0  1.866666666666667 1.866666666666667 0  2 1.866666666666667 0  0 2 0  0.1333333333333333 2 0  0.2666666666666667 2 0  0.4 2 0  0.5333333333333333 2 0  0.6666666666666666 2 0  0.8 2 0  0.9333333333333333 2 0  1.066666666666667 2 0  1.2 2 0  1.333333333333333 2 0  1.466666666666667 2 0  1.6 2 0  1.733333333333333 2 0  1.866666666666667 2 0  2 2 0  0 0 0.06666666666666667  0.1333333333333333 0 0.06666666666666667  0.2666666666666667 0 0.06666666666666667  0.4 0 0.06666666666666667  0.5333333333333333 0 0.06666666666666667  0.6666666666666666 0 0.06666666666666667  0.8 0 0.06666666666666667  0.9333333333333333 0 0.06666666666666667  1.066666666666667 0 0.06666666666666667  1.2 0 0.06666666666666667  1.333333333333333 0 0.06666666666666667  1.466666666666667 0 0.06666666666666667  1.6 0 0.06666666666666667  1.733333333333333 0 0.06666666666666667  1.866666666666667 0 0.06666666666666667  2 0 0.06666666666666667  0 0.1333333333333333 0.06666666666666667  0.1333333333333333 0.1333333333333333 0.06666666666666667  0.2666666666666667 0.1333333333333333 0.06666666666666667  0.4 0.1333333333333333 0.06666666666666667  0.5333333333333333 0.1333333333333333 0.06666666666666667  0.6666666666666666 0.1333333333333333 0.06666666666666667  0.8 0.1333333333333333 0.06666666666666667  0.9333333333333333 0.1333333333333333 0.06666666666666667  1.066666666666667 0.1333333333333333 0.06666666666666667  1.2 0.1333333333333333 0.06666666666666667  1.333333333333333 0.1333333333333333 0.06666666666666667  1.466666666666667 0.1333333333333333 0.06666666666666667  1.6 0.1333333333333333 0.06666666666666667  1.733333333333333 0.1333333333333333 0.06666666666666667  1.866666666666667 0.1333333333333333 0.06666666666666667  2 0.1333333333333333 0.06666666666666667  0 0.2666666666666667 0.06666666666666667  0.1333333333333333 0.2666666666666667 0.06666666666666667  0.2666666666666667 0.2666666666666667 0.06666666666666667  0.4 0.2666666666666667 0.06666666666666667  0.5333333333333333 0.2666666666666667 0.06666666666666667  0.6666666666666666 0.2666666666666667 0.06666666666666667  0.8 0.2666666666666667 0.06666666666666667  0.9333333333333333 0.2666666666666667 0.06666666666666667  1.066666666666667 0.2666666666666667 0.06666666666666667  1.2 0.2666666666666667 0.06666666666666667  1.333333333333333 0.2666666666666667 0.06666666666666667  1.466666666666667 0.2666666666666667 0.06666666666666667  1.6 0.2666666666666667 0.06666666666666667  1.733333333333333 0.2666666666666667 0.06666666666666667  1.866666666666667 0.2666666666666667 0.06666666666666667  2 0.2666666666666667 0.06666666666666667  0 0.4 0.06666666666666667  0.1333333333333333 0.4 0.06666666666666667  0.2666666666666667 0.4 0.06666666666666667  0.4 0.4 0.06666666666666667  0.5333333333333333 0.4 0.06666666666666667  
[...]
<PointData  Scalars="f_10"> 
<DataArray  type="Float64"  Name="f_10"  format="ascii">8.0011618195813372e-01  3.1289724602588427e+00  4.0728155948117744e+00  3.3497410072319065e+00  2.5628620004483387e+00  4.7823488205621656e+00  1.0264691603134219e+00  6.0748369958869308e-01  6.4853805867750261e-02  1.2258707231023964e+00  6.7574160125393201e-01  2.1251795501103614e+00  1.6147240508578695e+00  2.5475479951900842e-01  5.3357769168604752e-01  3.5764540147154498e+00  1.3757480649434863e+00  1.6645887912341888e+00  1.8720764682509181e-01  9.8885048082957383e-01  2.9077710568775825e+00  4.6362771723737408e+00  1.8445148325550645e-01  1.4305638694899896e+00  1.5896319637183840e+00  1.8743043056902373e+00  4.0707120259656165e-01  1.9001252097948775e+00  1.4608131158162050e+00  1.0362806397104938e+00  8.1624021484444209e-01  1.7877938928646204e+00  3.5609961827261882e+00  1.5650622863208339e+00  1.9526795226983915e-01  2.9688007220038419e+00  9.1157134994245159e-01  1.8749424202947744e+00  2.6353327168471270e+00  9.9939116325063304e-01  2.0332847243953229e+00  5.4073585417292447e-01  6.1647143534130566e-01  1.0615584545016072e+00  2.9246665040303070e+00  9.8402460343408549e-01  1.1731265379864562e+00  1.3249829524141636e+00  2.2214868240189474e+00  3.3063270270789125e+00  1.5804882608340685e+00  3.8523042316663272e+00  1.8340882100580109e+00  1.7959212706285934e+00  4.7961926563765622e-01  1.5483552923664567e+00  1.0066714136003663e+00  2.9276566821543155e+00  1.4130352793547039e+00  1.8412431530933737e+00  1.0395977248462815e+00  6.8817438579819212e-01  1.0215749145720869e+00  4.0802478477981170e+00  2.6025376553750155e+00  1.1322087843065982e+00  1.2118477093209927e+00  2.3806551811591596e+00  3.7809774229117252e+00  2.5418018431416547e+00  1.2029856181663994e+00  9.2674272509318389e-01  8.1090128148207996e-01  3.9119932601757235e+00  8.9921000934350481e-01  2.6529552321485883e+00  2.2032045405472047e+00  2.8482388021238760e+00  1.2414260660199490e+00  2.8097374241458009e+00  2.1157341271511214e+00  5.2365508333228250e-01  2.0196943796301405e+00  9.4213825885574698e-01  1.4910701008046519e+00  4.4514506951847377e+00  3.4979095593418976e+00  3.1961181161109833e+00  5.2630413008752921e+00  1.8047866645534734e+00  6.4009859236838981e-02  3.4730233100555106e+00  1.0803331148635862e+00  2.8244840412998222e+00  2.3710526178311606e+00  1.4549472090305080e+00  2.4724335969467184e+00  1.3236700035421296e+00  1.9070086508084183e+00  4.4734408192963810e+00  5.3701982590321347e+00  1.1043605834114767e+00  1.8733795851217747e+00  6.6658298425616449e+00  1.4200712027310780e+00  2.6883917271922271e+00  1.5061979094515905e+00  3.0029362235102757e+00  1.0978823177925274e+00  1.0271357079901551e+00  2.0164028340695599e+00  1.6763028437115930e+00  5.9470483403590251e+00  8.0593286830020361e-01  6.7787165923054948e-01  1.6349878945734353e+00  3.6524773036488978e+00  2.8900580476683047e+00  7.0981111948490638e-01  5.1840827069603612e-01  4.4247748516905370e+00  3.1112164029305889e-01  2.4786306570963799e+00  4.8730042346380733e+00  8.0098306744962666e-01  9.8580571794180982e-01  9.2399152012919228e-01  4.8081091654630864e-01  7.0299267491086359e-01  4.1019417438092480e+00  7.4388305164086543e-01  2.1675013261395071e+00  3.0961975591822881e+00  3.3246959519974335e+00  1.0978449570127369e+00  1.4170230805786297e+00  8.5492630038793849e-01  6.3527567785181382e-01  5.4734654320149179e-01  1.5448747441446329e+00  1.5030379451651413e-01  3.5216015416034372e+00  1.2571522870125436e+00  3.8505086669327087e+00  1.6433777017642042e+00  5.1212492087112933e+00  1.8529036615902961e+00  2.5792210148321804e+00  8.8810777530912888e-01  1.2270872394295407e+00  3.9147023771018028e+00  1.7396499726084558e+00  9.1835608725627974e-02  3.5139129537696773e-01  2.4847848473358005e+00  1.0888665830255329e+00  7.3966959460370618e-01  2.9562303368017493e+00  1.9479271198994952e+00  2.6588740193064146e+00  1.0272362316753365e+00  1.7929323948879738e+00  5.8842347680947622e+00  9.7734940378564943e+00  3.1082982323550832e+00  1.0591557618803253e+00  2.0020277392507886e+00  4.2380173870668214e-01  1.2626656226748036e+00  4.3781051138965301e+00  1.5519363271235500e+00  3.6602790772315577e+00  1.5146555016517509e+00  2.5442065514850136e+00  2.1838946621052715e+00  1.2778550028460660e+00  5.1607987247285045e+00  7.2389964387728212e-01  3.2048234645608726e+00  1.5084029176074085e+00  3.0057140397040607e+00  3.5721960547947367e+00  3.8981463001099770e+00  3.1136705926425807e+00  2.0523840697107132e+00  3.9476377950248809e+00  1.7026468269142647e+00  3.6809334486121594e+00  6.2866505932382799e-01  2.8263535469770220e+00  3.5465363797873479e+00  6.1085392592561671e+00  2.2033905635170350e+00  5.2907620173142274e+00  1.1575994867839197e+00  4.4108495895022015e+00  3.6957272986637651e-01  1.8000296971639776e-01  4.3806431670431083e+00  1.4860046162940812e+00  4.0777288681027357e-01  6.9518026950840017e-01  1.6873508624477043e+00  1.1618015513403683e+00  3.1260199662894805e-01  4.2909732353518071e-01  2.2164378034907988e+00  6.3811059994715338e+00  1.5262934053838234e-01  8.0120035272548240e-01  2.9104298872894019e-01  3.9741087897011079e-01  4.8128153292085045e+00  1.1326946358688958e+00  2.4753614915091342e+00  2.1411240181294988e+00  2.5648212316690748e+00  1.2442753376030622e+00  2.8046451822264613e+00  2.8659793714032751e+00  2.4221408249218386e+00  1.8143693681379367e+00  3.8086255574571113e+00  1.9662602529336501e+00  3.9503325232407693e+00  7.1935723775785769e+00  1.6177524619650443e+00  1.7762248452023559e+00  3.9908622748867362e-01  4.2237444414754570e+00  5.6007415326102157e+00  4.9006802424272805e-01  5.3786540194626464e-01  5.4543795228606518e-01  1.8832170920727132e+00  1.2889507683739612e+00  1.7486436858423122e+00  2.4820360367981524e+00  3.2103966208070180e+00  9.2441633250366395e-01  2.8892060303917835e+00  3.6219684555489566e+00  4.9282280969783185e+00  1.1937751484593127e+00  2.3302004373856766e+00  7.1402832504969249e-01  3.9603194570322628e+00  9.9248170057355556e-01  4.5194981397540612e+00  4.1313901657544189e-01  2.6900051857615939e+00  1.6562315926089577e+00  2.7547865030926273e+00  2.3693533517452279e+00  6.9708371335522423e-01  4.6685871911436641e+00  1.7561120825651528e+00  2.4944883973637206e+00  2.6560517654652900e+00  1.6330429200059022e+00  3.7032255702172667e-01  5.4604817770002727e+00  1.7610624716099976e+00  1.6042681335430764e+00  4.2638808852598414e-01  8.8437134893249991e-01  4.5459070544446858e+00  1.5532446459598144e+00  1.4610434146902556e+00  1.6866433401282749e-01  1.3642594107715238e+00  2.6954893246557878e+00  5.7080505680278615e-01  1.3803206917971125e+00  7.2414461673255659e-01  6.2881494810236183e-01  2.9613793548052962e+00  8.8519810664892287e+00  6.5204594679307859e-01  2.1164815704762199e+00  1.5470435868758468e+00  2.1142614484173952e+00  1.8950468544290202e+00  2.3277627625576461e-01  2.5854891155791577e+00  3.3598621948747347e+00  5.3071002487427399e-01  2.1473615822356997e+00  2.4753441428241159e+00  1.3525873645057727e+00  4.6033463810947567e-01  3.4476050064299928e+00  8.9943415486118417e-01  2.0098165263538101e+00  3.1791614420982315e+00  2.5384903632867331e+00  2.3679402210108558e+00  7.3908985815657946e-01  2.6502357044328684e-01  2.5058206256892683e+00  1.2073086345656101e+00  3.8844436664756454e+00  3.1801878446526732e+00  1.1604451994732463e+00  7.5758230764924817e-01  3.4859339203845323e+00  2.8019104502250411e+00  1.9736178125719670e+00  2.1524934746859663e+00  1.2894330275583499e+00  8.7439844126941557e-01  1.7734446169309701e+00  7.5448919662547242e-01  1.6201126213182881e+00  1.8086842260340572e+00  3.2771345885094081e+00  2.4226315696661627e+00  1.9408894947773605e+00  5.2938304241800671e-01  1.5064941019787788e+00  4.1289749507403757e+00  3.6911880989205121e+00  4.9729159417222366e+00  7.0400590083482051e-01  1.6469391858026796e+00  9.2355067891497367e-01  1.4357343554265906e-01  3.8460311362286986e-01  1.0335121574076311e+00  4.5551144967659809e+00  2.6213445761850109e+00  4.0127405281918955e+00  3.0772157443709536e+00  5.1588624222796193e+00  2.5236774455765385e+00  1.4670907036503651e+00  9.2707589694779324e-01  2.4510173125376906e+00  1.7526287454372447e+00  1.9536857343903831e+00  4.0770600338011844e+00  8.7791851860320913e-01  4.1653897367153625e-01  4.3252604856089070e+00  5.4525466290859841e+00  1.0923824941061584e+00  4.3194440889545360e-01  1.9530417130124398e+00  1.1601181947565320e+00  7.8454959258239034e+00  1.9087337961299939e+00  9.2692391823646880e-01  2.3076447814228227e+00  3.6529205691551385e+00  2.0722969225055343e+00  2.4180901255907319e+00  3.8225773804048031e+00  7.4062430946866076e-01  1.2193858605269869e+00  1.5448541728574570e+00  3.3022030970438667e+00  1.4401952451366020e+00  2.3662291357835219e+00  2.6220086434084546e+00  5.3976657630604374e-01  1.9561113249352957e+00  1.0701757573130899e+00  9.0677775075854350e-01  5.7894859181063563e+00  2.0959141351131150e+00  1.6612574113466561e+00  2.5420483426575071e+00  6.7496951078644258e+00  5.7183269372271157e+00  1.8244655111903261e+00  1.7021224578468308e+00  1.8457763442038850e+00  2.2622602767295055e+00  2.8512949246310243e-01  3.0476112235078965e+00  1.7520225538888685e+00  7.6956038592043285e-01  1.0412960497274217e+00  5.7987349848547065e-01  1.6890724467288143e+00  2.6820151458065915e+00  2.1680540593460784e+00  1.7850256621216858e+00  4.9290936741326856e+00  3.4397002685531053e+00  8.5340316977761488e-01  3.1546309892173968e-01  2.5781922954054100e+00  4.5372601164410220e-01  5.0504109783475148e-01  7.6311909638636899e-01  1.3560857177309780e+00  2.2343447253209052e+00  1.8909833026330529e+00  2.5973312545153973e+00  1.8115692413387969e+00  3.5920165513491460e+00  2.3139708006073776e+00  2.0070779145204414e+00  1.9557709961410641e+00  1.4027377362330800e+00  3.2932602916817668e+00  2.9684378305378476e+00  4.7921420059036268e-01  5.6189919058251092e-01  2.2404209954517893e+00  7.5065361986981216e-01  2.6139767642197134e+00  5.7277408328086681e+00  9.6667981401715808e-01  1.5842215399387347e-01  3.5019657695139922e-01  1.8855054168934682e-01  1.0124743765758497e+00  6.3989568266918537e+00  1.1274911804013572e+00  4.4208925779045822e+00  8.1458849903312280e-01  5.6598730824074683e-01  1.0901320976262887e+00  2.8194270180009817e+00  7.9445801320779086e-01  3.2520352083051085e+00  6.3461965693603251e-01  3.9619944599591927e+00  1.5147304372429953e+00  5.0582570908206415e-01  1.9648606606080075e+00  4.7212170804127185e-01  1.9348148854440375e+00  3.0805721521537976e+00  4.1190843465605385e+00  2.0279217799317633e+00  2.2886178466448261e+00  1.6857112884645820e+00  1.6073524484459960e+00  3.6619972263355889e+00  8.2080976984204246e-01  6.4492645329971410e+00  5.5705944914842254e-01  2.7319457603165751e+00  6.8850132105620725e+00  4.3454113016416054e+00  4.5049937397986550e+00  2.4649142255432910e+00  1.2472400472758240e+00  4.2052918066728342e+00  1.2405499000057754e+00  2.1123981127540153e-01  1.7529497731118850e+00  1.8516418987113836e+00  1.4121204642236511e+00  3.3410250961972709e-01  3.2975754647814898e-01  2.5020849545928563e+00  1.1344991099200270e+00  1.6236385130039848e+00  3.5552727833779594e+00  3.3177278313131007e+00  1.3158742924600200e+00  3.3046643400781450e-01  2.0167307111153104e-01  4.0628949002821180e-01  4.7310372258913578e+00  1.6145976992326074e+00  2.5441641752764488e+00  4.2130123893959057e+00  2.6819906043549371e+00  1.6379023813095803e+00  2.1019279997474709e+00  4.2303101855046945e+00  1.3507284066360947e+00  5.4380864786340710e-01  3.0054152151077198e+00  1.6832606404696366e+00  1.7855758604117795e+00  3.3307686756408388e+00  6.4978431253618985e-01  3.2901019947345613e+00  1.0753087905696890e+00  3.3852404848981812e+00  3.2659257268071502e+00  8.3788134451957846e-02  4.9779930602201095e-01  1.6919749940544915e+00  2.0125620139832527e+00  4.6436612605838254e+00  4.7048112461601850e+00  3.7650720310184136e+00  3.0989314312430269e+00  3.2196470868680462e+00  3.4567232197358329e+00  1.3225968918077309e+00  4.2083153087319252e+00  6.9388305048091148e+00  3.6908184076774879e+00  1.2671523759103072e+00  1.9962143452177477e+00  7.3646950953462986e-01  1.8971392823254556e+00  9.2145947150124385e-01  1.9756094673238813e+00  1.2212961521627397e+00  2.2127989196287627e+00  4.3136262619434884e+00  7.5624825656594241e-01  2.0309566754656863e+00  1.1148831163033461e+00  2.1710804529941461e+00  8.7516178430792058e-01  7.1748475948125701e-01  4.0424604830569516e-01  1.4398527485986288e+00  2.6535765866386809e+00  6.9369183889016672e-01  4.5787211848106715e+00  1.6338232113060902e+00  4.6993338232103117e+00  2.2606197712873608e+00  1.0143674019572648e+00  1.0362629317521468e+00  1.5632336880109363e+00  9.0095077869124118e-01  1.0003821870953602e+00  7.4186924009670485e-01  2.3786183970635211e+00  2.2178438284926623e+00  1.7019568271633798e+00  4.6011478641196710e+00  4.1752411497801689e-01  1.7734184375865383e+00  7.2625644314287330e-01  5.1782439166665304e+00  9.7332894156623340e-01  2.0027280537405474e+00  2.6628154190936222e+00  4.4783502573326901e+00  3.1721286495209911e-01  1.9632096829939174e+00  1.1735907523457614e+00  1.5131144616376342e+00  8.0318128195888872e-01  4.2680723254983279e+00  2.1483709179326063e-01  1.0287327184030632e+00  1.9316392733739278e+00  2.4983548543980341e+00  2.0841543524122854e+00  1.6542527146393087e+00  1.6654385858063994e+00  1.8446279814787050e+00  1.2316182935222155e+00  3.0571979301109349e+00  1.0177478308603833e+00  3.7154029307738616e+00  4.4344782868657129e-01  1.8822218737287244e+00  9.1820241372348672e+00  1.0226151768888621e+00  5.7314710992169082e-01  1.7716754609156860e+00  2.0012553247836404e+00  3.4594233545769626e-01  3.1261154136234237e-01  1.3470569575212477e+00  2.6955711570680512e+00  2.2094025435769820e+00  2.7451615547478370e+00  2.7128802997088375e+00  4.0601267740414260e+00  4.4349042606730343e-01  4.1730073128258489e+00  3.4011416116006083e+00  5.2179730456269411e+00  3.2531677820763655e-01  1.5824124814690810e+00  1.4375656402779308e-01  2.2875204948240380e-01  1.4963354323161766e+00  1.3183867583280087e+00  1.3677885906797176e+00  3.8976871566595577e+00  2.7869576139628052e+00  8.0978879400972570e-01  5.3370623907263415e+00  1.9732585429733562e+00  4.1046030639835163e+00  3.3009238020503711e+00  1.0813730328440350e+00  4.2677233874109737e+00  2.7388016519068481e+00  3.5154666808599759e+00  1.2860579352525181e+00  4.2629212619179450e-02  3.8053254445243967e+00  1.5923983586700252e+00  1.2643918197318145e+00  3.5014166323237808e+00  3.3875922646788648e+00  1.7536779912987885e+00  6.6998179299641407e+00  2.8890452474748445e+00  1.6055706702539092e+00  6.3653320455223217e-01  4.2414628811594151e+00  1.9749272057090488e+00  3.2842027697526155e+00  3.3214761186462618e+00  1.3523953017797661e+00  6.8291302272533239e-01  1.1566103415355165e+00  1.1245932649651074e+00  1.1867873193709031e+00  1.7046116356913081e+00  1.7288863104339458e+00  7.4773489992659148e-01  2.6829133610865736e+00  2.6501455793215309e+00  8.5980964098414070e-01  1.4129751606990559e+00  2.6717018129655323e+00  9.8756146330959127e-01  3.0793795676296503e+00  4.3510036122730478e+00  1.2054413726430422e+00  1.8998626387130444e+00  2.1988029390546995e+00  1.7523172746539795e+00  3.3990756336147139e+00  2.8302431900719188e-01  2.4161810793451046e+00  9.2190831014944408e-01  4.9844605754815108e-01  6.5193009689665016e-01  2.4647453138001865e+00  5.1605000618552521e-01  1.8729905494820802e+00  1.4456070340816007e+00  2.4983464583165227e+00  3.7083522594195402e+00  4.9133853305859594e+00  7.3369655167260639e-01  1.3911943440498735e+00  3.6547821998885328e+00  7.1961622674731629e-01  5.9167585017250057e-01  1.4003534498675370e+00  1.4737479583517474e+00  6.8339963351250432e-01  2.6821420291843783e+00  1.9297918440763528e+00  8.7810282596854694e-01  2.1657388490685880e+00  4.1778010797757013e+00  1.1327324794658336e+00  1.5660519027345075e+00  3.2410277955172440e+00  3.1496718197838511e+00  5.4430881519956218e+00  3.5475351028742810e+00  1.4795544830018967e+00  1.2411124728715679e+00  9.3384375913991946e-01  3.8623960973633054e+00  5.0788309910473526e+00  4.4925345514416043e-01  1.3602631553315778e+00  1.3085915625577387e+00  1.0257568498915715e+00  1.2233449305243775e+00  3.3416903615180882e+00  6.2844415193424974e-01  3.0985364364142249e+00  1.3454020954130395e+00  2.1910260787328593e+00  1.3377561861048592e+00  1.7415216160061773e+00  2.3002990281786411e+00  1.0186501787298370e+00  2.8938583985407629e+00  1.9451766783147875e+00  2.1287265966312576e+00  1.3993325795849143e+00  3.5079213762266170e+00  6.9203860166459741e-02  4.9467438844707967e-01  2.2034496044482763e+00  3.8589629095401370e+00  4.1660240466490839e-01  3.4301838587440119e+00  1.3902762034612419e+00  3.4967439329129046e+00  1.0001689026877334e+00  4.2670169957709092e-01  1.1454418318411266e+00  2.8726141931651887e+00  5.8997365901482350e+00  4.1927190742084521e+00  3.1502465901586820e+00  4.9400513719301040e+00  1.9968816697999145e+00  5.4195990462972974e+00  4.9634369791159072e+00  3.1101106527244182e+00  1.2322407904192036e+00  4.5495039289564704e-01  3.2669358745399553e+00  3.0210535683178108e+00  5.6559248084736713e-01  1.0398969501458377e+00  1.3071167353074025e+00  4.3655893687090188e+00  5.4807427568822602e+00  3.5624666497700610e+00  3.1784201939450512e+00  1.0183994960310330e+00  4.4724057590243305e-01  1.5090238759581673e+00  1.0667255210564996e+00  1.4362630618539487e+00  1.1998694706166877e+00  2.6963139557222573e+00  2.7628363455940317e+00  1.6762786968902352e+00  3.0606536105964630e+00  1.3104611379539088e+00  1.8377042413617857e+00  1.8142363194296851e+00  8.3078869779863007e-01  2.5304263558257127e+00  4.1873570646568856e+00  2.2985643244761080e+00  1.9670106187712701e+00  2.9427155837601049e+00  3.4723096716940955e+00  1.2691149369489143e+00  2.9665088262459420e+00  1.4192296431860174e+00  8.9593906515429853e-02  9.4272639406540359e-01  8.8884365303664270e-01  3.4327452946540911e+00  5.8995767219960165e+00  3.9596570296316096e+00  7.0383165459188248e+00  2.1335329296282124e+00  5.0298167234843012e+00  3.4078757737390122e+00  3.5770766667019802e+00  1.6930649713696526e+00  5.0809247149479564e+00  3.7671020698410635e+00  1.2240578928866448e+00  9.5073490502449221e-01  4.1346555014085706e-01  1.3458042505827690e+00  3.0298407663685101e+00  8.0230316892525011e-01  2.1156847060123525e+00  2.4862333832930599e+00  2.9604725111997801e+00  1.6470616352754206e+00  2.8835496106057943e+00  1.2037358714894237e+00  1.3102932503938129e+00  5.1421071539999319e-01  1.1772317802022656e+00  1.1416162285630893e+00  1.5593302662949307e+00  3.1934755758867666e+00  8.6183026266720064e-01  6.7644603289728202e+00  2.9229695679478427e+00  1.9596531214046249e+00  2.0836359436714935e+00  1.7252191533494268e+00  1.5186286859965148e+00  9.3223786684243221e-02  3.7498336967096448e+00  1.9036950284628547e+00  2.1284966295287027e+00  4.0069919634878399e+00  2.0338633647390854e+00  5.2110507021201480e+00  1.1744355796809234e+00  2.4373888404328876e+00  2.2925860322903628e+00  2.7760494868364033e-01  2.3867444851084185e+00  6.7461560296420076e-01  1.3471864722253883e+00  3.5441188729492201e+00  3.2592635343952781e+00  1.1817152781057709e+00  2.7075120041709901e+00  9.3838328337444799e-01  1.8587932276746173e+00  1.1801439077251095e+00  1.1823131571369343e+00  1.4060847814089108e+00  1.1668280637630786e+00  6.5162550111310813e-01  2.1217040097323072e+00  2.3935602594945995e+00  1.0020346256500197e+00  2.4729546884961615e+00  3.0779873663606021e+00  1.8561806736526953e+00  4.8675338951769902e+00  4.4757705007991228e-01  3.4354920389742274e+00  2.6139546386117543e+00  3.8290402204706062e+00  5.1141732494056695e+00  1.2495871392969811e-01  6.7007198933716072e-01  7.6549995122477921e-01  9.9838766841711579e-01  3.3746115045016356e-01  1.1830375139220615e+00  8.0349161033479188e-01  1.9354681716654631e+00  1.1881476883017963e+00  1.0375306697109083e+00  1.2115718872404126e