<?xml version="1.0"?>
<VTKFile type="UnstructuredGrid"  version="0.1"  >
<UnstructuredGrid>
<Piece  NumberOfPoints="415" NumberOfCells="1381">
<Points>
<DataArray  type="Float64"  NumberOfComponents="3"  format="ascii">2 0 0  2.25 0 0  2.25 0.25 0  2.25 0.25 0.25  2.25 0 0.25  2 0.25 0  2.5 0 0  2.5 0.25 0  2.5 0.25 0.25  2.5 0 0.25  2.75 0 0  2.75 0.25 0  2.75 0.25 0.25  2.75 0 0.25  3 0 0  3 0.25 0  3 0.25 0.25  3 0 0.25  3.25 0 0  3.25 0.25 0  3.25 0.25 0.25  3.25 0 0.25  3.5 0 0  3.5 0.25 0  3.5 0.25 0.25  3.5 0 0.25  3.75 0 0  3.75 0.25 0  3.75 0.25 0.25  3.75 0 0.25  4 0 0  4 0.25 0  4 0.25 0.25  4 0 0.25  4.25 0 0  4.25 0.25 0  4.25 0.25 0.25  4.25 0 0.25  4.5 0 0  4.5 0.25 0  4.5 0.25 0.25  4.5 0 0.25  4.75 0 0  4.75 0.25 0  4.75 0.25 0.25  4.75 0 0.25  2.25 0.5 0  2.25 0.5 0.25  2 0.5 0  2.5 0.5 0  2.5 0.5 0.25  2.75 0.5 0  2.75 0.5 0.25  3 0.5 0  3 0.5 0.25  3.25 0.5 0  3.25 0.5 0.25  3.5 0.5 0  3.5 0.5 0.25  3.75 0.5 0  3.75 0.5 0.25  4 0.5 0  4 0.5 0.25  4.25 0.5 0  4.25 0.5 0.25  4.5 0.5 0  4.5 0.5 0.25  4.75 0.5 0  4.75 0.5 0.25  2.25 0.75 0  2.25 0.75 0.25  2 0.75 0  2.5 0.75 0  2.5 0.75 0.25  2.75 0.75 0  2.75 0.75 0.25  3 0.75 0  3 0.75 0.25  3.25 0.75 0  3.25 0.75 0.25  3.5 0.75 0  3.5 0.75 0.25  3.75 0.75 0  3.75 0.75 0.25  4 0.75 0  4 0.75 0.25  4.25 0.75 0  4.25 0.75 0.25  4.5 0.75 0  4.5 0.75 0.25  4.75 0.75 0  4.75 0.75 0.25  2.25 1 0  2.25 1 0.25  2 1 0  2.5 1 0  2.5 1 0.25  2.75 1 0  2.75 1 0.25  3 1 0  3 1 0.25  3.25 1 0  3.25 1 0.25  3.5 1 0  3.5 1 0.25  3.75 1 0  3.75 1 0.25  4 1 0  4 1 0.25  4.25 1 0  4.25 1 0.25  4.5 1 0  4.5 1 0.25  4.75 1 0  4.75 1 0.25  2.25 1.25 0  2.25 1.25 0.25  2.5 1.25 0  2.5 1.25 0.25  2.75 1.25 0  2.75 1.25 0.25  3 1.25 0  3 1.25 0.25  3.25 1.25 0  3.25 1.25 0.25  3.5 1.25 0  3.5 1.25 0.25  3.75 1.25 0  3.75 1.25 0.25  4 1.25 0  4 1.25 0.25  4.25 1.25 0  4.25 1.25 0.25  4.5 1.25 0  4.5 1.25 0.25  4.75 1.25 0  4.75 1.25 0.25  2.5 1.5 0  2.5 1.5 0.25  2.25 1.5 0  2.25 1.5 0.25  2.75 1.5 0  2.75 1.5 0.25  3 1.5 0  3 1.5 0.25  3.25 1.5 0  3.25 1.5 0.25  3.5 1.5 0  3.5 1.5 0.25  3.75 1.5 0  3.75 1.5 0.25  4 1.5 0  4 1.5 0.25  4.25 1.5 0  4.25 1.5 0.25  4.5 1.5 0  4.5 1.5 0.25  4.75 1.5 0  4.75 1.5 0.25  2.5 1.75 0  2.5 1.75 0.25  2.25 1.75 0  2.25 1.75 0.25  2.75 1.75 0  2.75 1.75 0.25  3 1.75 0  3 1.75 0.25  3.25 1.75 0  3.25 1.75 0.25  3.5 1.75 0  3.5 1.75 0.25  3.75 1.75 0  3.75 1.75 0.25  4 1.75 0  4 1.75 0.25  4.25 1.75 0  4.25 1.75 0.25  4.5 1.75 0  4.5 1.75 0.25  4.75 1.75 0  4.75 1.75 0.25  2.5 2 0  2.5 2 0.25  2.75 2 0  2.75 2 0.25  3 2 0  3 2 0.25  3.25 2 0  3.25 2 0.25  3.5 2 0  3.5 2 0.25  3.75 2 0  3.75 2 0.25  4 2 0  4 2 0.25  4.25 2 0  4.25 2 0.25  4.5 2 0  4.5 2 0.25  4.75 2 0  4.75 2 0.25  2.75 2.25 0  2.75 2.25 0.25  3 2.25 0  3 2.25 0.25  3.25 2.25 0  3.25 2.25 0.25  3.5 2.25 0  3.5 2.25 0.25  3.75 2.25 0  3.75 2.25 0.25  4 2.25 0  4 2.25 0.25  4.25 2.25 0  4.25 2.25 0.25  4.5 2.25 0  4.5 2.25 0.25  4.75 2.25 0  4.75 2.25 0.25  3 2.5 0  3 2.5 0.25  2.75 2.5 0  2.75 2.5 0.25  3.25 2.5 0  3.25 2.5 0.25  3.5 2.5 0  3.5 2.5 0.25  3.75 2.5 0  3.75 2.5 0.25  4 2.5 0  4 2.5 0.25  4.25 2.5 0  4.25 2.5 0.25  4.5 2.5 0  4.5 2.5 0.25  4.75 2.5 0  4.75 2.5 0.25  3 2.75 0  3 2.75 0.25  2.75 2.75 0  2.75 2.75 0.25  3.25 2.75 0  3.25 2.75 0.25  3.5 2.75 0  3.5 2.75 0.25  3.75 2.75 0  3.75 2.75 0.25  4 2.75 0  4 2.75 0.25  4.25 2.75 0  4.25 2.75 0.25  4.5 2.75 0  4.5 2.75 0.25  4.75 2.75 0  4.75 2.75 0.25  3 3 0  3 3 0.25  2.75 3 0  2.75 3 0.25  3.25 3 0  3.25 3 0.25  3.5 3 0  3.5 3 0.25  3.75 3 0  3.75 3 0.25  4 3 0  4 3 0.25  4.25 3 0  4.25 3 0.25  4.5 3 0  4.5 3 0.25  4.75 3 0  4.75 3 0.25  2.5 0.25 0.5  2.5 0 0.5  2.25 0 0.5  2.25 0.25 0.5  2.75 0.25 0.5  2.75 0 0.5  3 0.25 0.5  3 0 0.5  3.25 0.25 0.5  3.25 0 0.5  3.5 0.25 0.5  3.5 0 0.5  3.75 0.25 0.5  3.75 0 0.5  4 0.25 0.5  4 0 0.5  4.25 0.25 0.5  4.25 0 0.5  4.5 0.25 0.5  4.5 0 0.5  4.75 0.25 0.5  4.75 0 0.5  2.5 0.5 0.5  2.25 0.5 0.5  2.75 0.5 0.5  3 0.5 0.5  3.25 0.5 0.5  3.5 0.5 0.5  3.75 0.5 0.5  4 0.5 0.5  4.25 0.5 0.5  4.5 0.5 0.5  4.75 0.5 0.5  2.5 0.75 0.5  2.25 0.75 0.5  2.75 0.75 0.5  3 0.75 0.5  3.25 0.75 0.5  3.5 0.75 0.5  3.75 0.75 0.5  4 0.75 0.5  4.25 0.75 0.5  4.5 0.75 0.5  4.75 0.75 0.5  2.5 1 0.5  2.25 1 0.5  2.75 1 0.5  3 1 0.5  3.25 1 0.5  3.5 1 0.5  3.75 1 0.5  4 1 0.5  4.25 1 0.5  4.5 1 0.5  4.75 1 0.5  5 1 0.5  2.5 1.25 0.5  2.75 1.25 0.5  3 1.25 0.5  3.25 1.25 0.5  3.5 1.25 0.5  3.75 1.25 0.5  4 1.25 0.5  4.25 1.25 0.5  4.5 1.25 0.5  4.75 1.25 0.5  5 1.25 0.5  2.5 1.5 0.5  2.75 1.5 0.5  3 1.5 0.5  3.25 1.5 0.5  3.5 1.5 0.5  3.75 1.5 0.5  4 1.5 0.5  4.25 1.5 0.5  4.5 1.5 0.5  4.75 1.5 0.5  5 1.5 0.5  2.5 1.75 0.5  2.75 1.75 0.5  3 1.75 0.5  3.25 1.75 0.5  3.5 1.75 0.5  3.75 1.75 0.5  4 1.75 0.5  4.25 1.75 0.5  4.5 1.75 0.5  4.75 1.75 0.5  5 1.75 0.5  2.5 2 0.5  2.75 2 0.5  3 2 0.5  3.25 2 0.5  3.5 2 0.5  3.75 2 0.5  4 2 0.5  4.25 2 0.5  4.5 2 0.5  4.75 2 0.5  5 2 0.5  2.75 2.25 0.5  2.5 2.25 0.25  2.5 2.25 0.5  3 2.25 0.5  3.25 2.25 0.5  3.5 2.25 0.5  3.75 2.25 0.5  4 2.25 0.5  4.25 2.25 0.5  4.5 2.25 0.5  4.75 2.25 0.5  5 2.25 0.5  2.75 2.5 0.5  3 2.5 0.5  3.25 2.5 0.5  3.5 2.5 0.5  3.75 2.5 0.5  4 2.5 0.5  4.25 2.5 0.5  4.5 2.5 0.5  4.75 2.5 0.5  5 2.5 0.5  3 2.75 0.5  2.75 2.75 0.5  3.25 2.75 0.5  3.5 2.75 0.5  3.75 2.75 0.5  4 2.75 0.5  4.25 2.75 0.5  4.5 2.75 0.5  4.75 2.75 0.5  5 2.75 0.5  3 3 0.5  2.75 3 0.5  3.25 3 0.5  3.5 3 0.5  3.75 3 0.5  4 3 0.5  4.25 3 0.5  4.5 3 0.5  4.75 3 0.5  5 3 0.5  </DataArray>
</Points>
<Cells>
[...]
<PointData  Vectors="f_12"> 
<DataArray  type="Float64"  Name="f_12"  NumberOfComponents="3" format="ascii">-8.3957894241568520e-02 1.6669066439506993e-02 -2.9486424936689865e-04  -8.2587189757122328e-02 1.8563357242718539e-02 -3.5654065531562053e-04  -8.4264578187377870e-02 1.6985641204664129e-02 -2.2764526437304305e-04  -8.4163441867088185e-02 1.6858438911669691e-02 -2.1448299843544928e-04  -8.2495911689832446e-02 1.8441192888518771e-02 -3.1999437773566023e-04  -8.5879382794167167e-02 1.5169611255275488e-02 -2.1896140617379365e-04  -8.1121692727181408e-02 2.0188355371513079e-02 -3.3306431283423475e-04  -8.2309956000343895e-02 1.8295009513977469e-02 -2.2417612286986850e-04  -8.2254398251206687e-02 1.8209293768751383e-02 -2.0219858951369657e-04  -8.1019659559951732e-02 2.0060345218375641e-02 -3.1393101837371828e-04  -7.9318405463361594e-02 2.1313868357351239e-02 -2.4083027479213136e-04  -7.9920363008894713e-02 1.8990077597870133e-02 -1.8142827628116442e-04  -7.9933992663556122e-02 1.8979847670145034e-02 -1.4919702823761296e-04  -7.9255584318128569e-02 2.1237762769681170e-02 -2.2090265345892123e-04  -7.7084038946539604e-02 2.1878645840322536e-02 -1.2195989909858913e-04  -7.7107342872709081e-02 1.9093875602402246e-02 -1.2008267591999713e-04  -7.7184408191966647e-02 1.9160892856699141e-02 -7.1770555230196007e-05  -7.7072130082267959e-02 2.1869260123225761e-02 -7.9918563314746631e-05  -7.4383576479649133e-02 2.1884559540665455e-02 -7.3667548035869116e-06  -7.3947983034875847e-02 1.8716608306836299e-02 -5.2408886558497883e-05  -7.4062145780854599e-02 1.8836893388988873e-02 4.3997239517629799e-06  -7.4447713366430704e-02 2.1966489278883655e-02 5.9714052690312370e-05  -7.1276312798381938e-02 2.1438149740950648e-02 8.0933406424094689e-05  -7.0597102171023662e-02 1.8057659799096518e-02 -3.5630121168033713e-06  -7.0699781613427062e-02 1.8179590563736865e-02 5.9935467666969117e-05  -7.1387346263024329e-02 2.1575702596177145e-02 1.5892864864050025e-04  -6.7917976786194073e-02 2.0749757247852340e-02 1.1897832997050995e-04  -6.7207698845673070e-02 1.7323058040765619e-02 1.7716036889793420e-05  -6.7260699286822198e-02 1.7400916973023525e-02 8.1662665481487521e-05  -6.8023153846164280e-02 2.0878591986764453e-02 1.8425173802068192e-04  -6.4491136855481232e-02 2.0049862036338715e-02 8.1913490690952253e-05  -6.3851569755363005e-02 1.6638331980761124e-02 1.6296478335421133e-05  -6.3859344033240173e-02 1.6666338117432778e-02 7.5921597730850175e-05  -6.4554484121403105e-02 2.0123676479908151e-02 1.4606473582321356e-04  -6.1062213604445803e-02 1.9438183485950451e-02 1.7220536464239274e-05  -6.0533558866344081e-02 1.6051062502987844e-02 -4.1854891336985746e-06  -6.0523536139744948e-02 1.6048872437173990e-02 5.2886227613803925e-05  -6.1084428623871069e-02 1.9455704414279733e-02 8.0443526790058639e-05  -5.7642457853618913e-02 1.8954104599588056e-02 -3.6812145206286149e-05  -5.7243712007596814e-02 1.5582672871686964e-02 -2.9456491430033837e-05  -5.7235507724942250e-02 1.5568594630760619e-02 2.6391988964711853e-05  -5.7645313952237438e-02 1.8940921570396299e-02 2.4531529403224020e-05  -5.4225899225024771e-02 1.8615084433079361e-02 -6.6904530698139766e-05  -5.3970264279429872e-02 1.5249109217841391e-02 -4.8361142256265192e-05  -5.3969626020557729e-02 1.5232116841710336e-02 7.2235643987401192e-06  -5.4225851010617852e-02 1.8593597648872803e-02 -6.5805731285191237e-06  -8.5635902786342769e-02 1.4937807349151691e-02 -1.7999244618408522e-04  -8.5574309866601320e-02 1.4860243497788680e-02 -1.5687741784056728e-04  -8.7725641983515096e-02 1.3455654094009359e-02 -1.6190119939871376e-04  -8.3080885405438926e-02 1.5805380416770400e-02 -1.7742147069782304e-04  -8.3100624791209346e-02 1.5801092943577972e-02 -1.4572532213142912e-04  -8.0097339222777272e-02 1.6070728181946079e-02 -1.6663974943271717e-04  -8.0190476922268147e-02 1.6137944555793923e-02 -1.1501288181292969e-04  -7.6797782708837761e-02 1.5837787599588156e-02 -1.3461679596443382e-04  -7.6924093786660472e-02 1.5944330813595038e-02 -7.5000909557264636e-05  -7.3347242457629455e-02 1.5289585494434548e-02 -1.0260598860189884e-04  -7.3454620044206928e-02 1.5389038557200327e-02 -3.3243244982339861e-05  -6.9901427198794233e-02 1.4619757944321736e-02 -6.7914814917400407e-05  -6.9955466424071994e-02 1.4679042501838041e-02 2.0066938471416625e-06  -6.6534155934251410e-02 1.3946737169538499e-02 -3.5985765122675898e-05  -6.6539903129469891e-02 1.3968803215026082e-02 2.5494104148291964e-05  -6.3250858219836767e-02 1.3324256100943123e-02 -2.0576098531709665e-05  -6.3232125419112009e-02 1.3327503629034058e-02 3.4723925027752211e-05  -6.0032605891124101e-02 1.2782849937743713e-02 -2.1919022098737284e-05  -6.0011676815476096e-02 1.2780367424050126e-02 3.0167419324533834e-05  -5.6860456437409987e-02 1.2345642885384027e-02 -3.0935200368585094e-05  -5.6848073466199321e-02 1.2340222880113270e-02 1.9650642401348964e-05  -5.3718482398073010e-02 1.2028779762544387e-02 -4.0196450137614411e-05  -5.3715304927887529e-02 1.2019242805836980e-02 9.9047772941999968e-06  -8.6566710606081038e-02 1.2303994101061130e-02 -1.5271934099274196e-04  -8.6581106880632600e-02 1.2311203487663481e-02 -1.2216803019693490e-04  -8.9251084385427462e-02 1.1291557456167847e-02 -1.3923214879517471e-04  -8.3425353785391163e-02 1.2719220577509797e-02 -1.7082380913656272e-04  -8.3517431530910916e-02 1.2798004257975289e-02 -1.1691868762090961e-04  -7.9955626094801432e-02 1.2651525583991833e-02 -1.7091675423674634e-04  -8.0082006593186164e-02 1.2757210754478674e-02 -1.0430503058442873e-04  -7.6343071377735966e-02 1.2270411565001018e-02 -1.6225492049302758e-04  -7.6449857724843681e-02 1.2353284033058685e-02 -8.3183519428516617e-05  -7.2759852798205918e-02 1.1745585783707711e-02 -1.3536467597311853e-04  -7.2816381982395456e-02 1.1781859007540526e-02 -5.5858325054700956e-05  -6.9290366279962934e-02 1.1179756634339228e-02 -9.5709157708966506e-05  -6.9303341951943348e-02 1.1182773299873720e-02 -2.7410355517746078e-05  -6.5947052879530385e-02 1.0618618311968329e-02 -6.2021461226971866e-05  -6.5935730798410419e-02 1.0610853646346931e-02 -2.8543341679948600e-06  -6.2716440145067373e-02 1.0089415524070885e-02 -4.3204266192283177e-05  -6.2696482110704430e-02 1.0084925459931209e-02 9.9055885794493635e-06  -5.9577563067047992e-02 9.6178067814495349e-03 -3.5908870494845805e-05  -5.9558012509206296e-02 9.6195782085045246e-03 1.3084370440284778e-05  -5.6506387621723796e-02 9.2284675060146509e-03 -3.5561152542724458e-05  -5.6491371659898218e-02 9.2311481744494061e-03 1.0992046387823329e-05  -5.3477194598330648e-02 8.9377539970767420e-03 -3.7731199053774747e-05  -5.3468978905277097e-02 8.9357761544787608e-03 7.6961055374419538e-06  -8.7044278496519148e-02 9.0793351418187607e-03 -1.6040232793028587e-04  -8.7134454235759370e-02 9.1684177282466764e-03 -1.0533505300085056e-04  -9.0318678148136100e-02 8.5404132195960897e-03 -1.2743452184601706e-04  -8.3431231311043644e-02 9.1436167501166062e-03 -1.8121266322803704e-04  -8.3549255795341601e-02 9.2560826117852411e-03 -1.0977857335696558e-04  -7.9664796539677410e-02 8.9162033183928981e-03 -1.9235539859534283e-04  -7.9757426642049267e-02 8.9954004258459303e-03 -1.0492452641088229e-04  -7.5918918074215164e-02 8.5620755141512690e-03 -1.7833355009756733e-04  -7.5965167740362605e-02 8.5859350223855616e-03 -8.9254310516693463e-05  -7.2290130009675921e-02 8.1630710875606020e-03 -1.4264763951239484e-04  -7.2304360308962909e-02 8.1516030068440517e-03 -6.5448024888953339e-05  -6.8808622078428777e-02 7.7438845482509771e-03 -1.0488345288489199e-04  -6.8807334396475711e-02 7.7217308899657040e-03 -3.8307641547696258e-05  -6.5474572668303643e-02 7.3196696174434974e-03 -7.6802508213240399e-05  -6.5466591963605283e-02 7.3020941184571836e-03 -1.7887901639030578e-05  -6.2275080433648933e-02 6.9091733524247675e-03 -5.8001964764284848e-05  -6.2264033453948125e-02 6.9022065049889518e-03 -5.3481994228282378e-06  -5.9190731279091330e-02 6.5329204010056976e-03 -4.6688252712852690e-05  -5.9176808930004252e-02 6.5346521457911345e-03 8.2570622102165101e-07  -5.6194180439210324e-02 6.2092737854941927e-03 -4.0633942197874939e-05  -5.6178751347634587e-02 6.2148172651732628e-03 3.0985811531750550e-06  -5.3250684627971230e-02 5.9514336331591361e-03 -3.7760799085011564e-05  -5.3238211029715571e-02 5.9560234313729352e-03 3.8397009323348205e-06  -8.7169810584288229e-02 5.3680953270936064e-03 -1.8202819077342195e-04  -8.7282476616943910e-02 5.4825839426099346e-03 -1.0564208767756062e-04  -8.3272111343834845e-02 5.2672268192678453e-03 -2.0717810919054625e-04  -8.3347877777797286e-02 5.3404430513843077e-03 -1.1187786890382846e-04  -7.9391523930520541e-02 5.0550019142871086e-03 -2.0313642223172018e-04  -7.9418413640279115e-02 5.0725864247110532e-03 -1.0546611311596528e-04  -7.5613448077604867e-02 4.8140861746446663e-03 -1.7324250082160361e-04  -7.5616319223049108e-02 4.8001396692233427e-03 -8.8254057351164479e-05  -7.1968988286961202e-02 4.5631034000091783e-03 -1.3853688748631233e-04  -7.1966712297409294e-02 4.5374081008301721e-03 -6.4098027675180868e-05  -6.8474788014127694e-02 4.3020273529374422e-03 -1.0950425410358166e-04  -6.8473933262292133e-02 4.2763134827465219e-03 -4.2718756208144403e-05  -6.5137277526029047e-02 4.0316918973495944e-03 -8.5955867260512902e-05  -6.5137779467571544e-02 4.0127396215723600e-03 -2.6236428352437343e-05  -6.1949931154497304e-02 3.7601525590628113e-03 -6.7829117882747011e-05  -6.1947924089448998e-02 3.7497049183048523e-03 -1.4805018105360371e-05  -5.8893110540224398e-02 3.4984617376655892e-03 -5.4545582061177875e-05  -5.8885726387492433e-02 3.4958137348655247e-03 -7.5205041299065517e-06  -5.5936504039923583e-02 3.2553779532731638e-03 -4.5197193810592677e-05  -5.5924585136973501e-02 3.2593557665868494e-03 -3.0517477698278103e-06  -5.3042584338277736e-02 3.0382671945562174e-03 -3.9063583407334583e-05  -5.3030111937484130e-02 3.0466876390420352e-03 -5.1970791972915217e-08  -8.3125470959039549e-02 1.2767256135600585e-03 -2.1745839215960689e-04  -8.3134682326841194e-02 1.2831806944477973e-03 -1.1119707188712609e-04  -8.7126572132661770e-02 1.3582054018471666e-03 -2.1688725683353764e-04  -8.7186955468786451e-02 1.4212618874451821e-03 -1.1123536144301397e-04  -7.9223037227895005e-02 1.1702777942379453e-03 -1.9105152496347953e-04  -7.9213680945503337e-02 1.1541410515605369e-03 -9.9539160642252589e-05  -7.5442555194655481e-02 1.0606081910514730e-03 -1.6099563673854331e-04  -7.5432088006604128e-02 1.0386966841928963e-03 -8.0078816364171618e-05  -7.1796475803178314e-02 9.5452879542447429e-04 -1.3507175433380501e-04  -7.1791361012509811e-02 9.3230406301532094e-04 -6.1215632623676578e-05  -6.8295851134048846e-02 8.5028239086234081e-04 -1.1190649209551640e-04  -6.8297653866755112e-02 8.2961657024052096e-04 -4.4575279296067833e-05  -6.4949625126511187e-02 7.4077954987114135e-04 -9.1466329602744655e-05  -6.4954873706564997e-02 7.2260543730200935e-04 -3.0924043219211071e-05  -6.1756287334500108e-02 6.1914150216908336e-04 -7.4005617256027616e-05  -6.1760088848778920e-02 6.0481947041227709e-04 -2.0411483218523648e-05  -5.8697994854043832e-02 4.8157035300732174e-04 -5.9798435915779919e-05  -5.8697494949617728e-02 4.7362270278461407e-04 -1.2746927946344810e-05  -5.5744348491008483e-02 3.2749185675498712e-04 -4.8986500303861919e-05  -5.5739414736939663e-02 3.2803443293363078e-04 -7.2931288003233404e-06  -5.2860289251370582e-02 1.6035576740133388e-04 -4.1468146948632634e-05  -5.2852050427116153e-02 1.6856795510831077e-04 -3.2898814335091832e-06  -8.3082621599265508e-02 -2.7316400887858897e-03 -2.0004971003784498e-04  -8.3063667934417149e-02 -2.7522922279893348e-03 -1.0224624588472971e-04  -8.7102253821247227e-02 -2.7541468432901671e-03 -2.2564978269834087e-04  -8.7094533278444297e-02 -2.7621049095369974e-03 -1.1040804225891210e-04  -7.9179200319895296e-02 -2.7129025670225462e-03 -1.7487927114421685e-04  -7.9163321215121318e-02 -2.7336473853282828e-03 -8.7747407498105069e-05  -7.5404850763640979e-02 -2.6879755644441112e-03 -1.5310684865192087e-04  -7.5394600061176320e-02 -2.7058642201962316e-03 -7.2940902451003198e-05  -7.1766585152476262e-02 -2.6519867635912209e-03 -1.3235733065132429e-04  -7.1762704169634789e-02 -2.6674728842447136e-03 -5.8553852135005868e-05  -6.8268723309837964e-02 -2.6066034682795235e-03 -1.1255380687661269e-04  -6.8270363055609129e-02 -2.6217095397738474e-03 -4.5113786283759544e-05  -6.4913820676679279e-02 -2.5621908381496744e-03 -9.4020410176785560e-05  -6.4919059207937876e-02 -2.5785289533751315e-03 -3.3198555871648471e-05  -6.1698851498004796e-02 -2.5374811026295917e-03 -7.7247126517079366e-05  -6.1705403068864288e-02 -2.5531862671194384e-03 -2.3281640004666545e-05  -5.8610296770006183e-02 -2.5512241704182858e-03 -6.3079669608043123e-05  -5.8616256972163855e-02 -2.5621897091757826e-03 -1.5513366867358878e-05  -5.5624776146653891e-02 -2.6130270170968283e-03 -5.2260076802195095e-05  -5.5627833552855180e-02 -2.6163436021536357e-03 -9.7447140527154648e-06  -5.2713592269734863e-02 -2.7221938124026932e-03 -4.4924898038798773e-05  -5.2711197238061239e-02 -2.7181876544809173e-03 -5.6095473717066908e-06  -8.3159639366745447e-02 -6.7381901297492493e-03 -1.8212743388578136e-04  -8.3140404418629882e-02 -6.7593132297423617e-03 -8.8745832154631490e-05  -7.9263699544968785e-02 -6.5889229155562633e-03 -1.6492689407038725e-04  -7.9250421975751925e-02 -6.6047708509672561e-03 -7.8449349942634258e-05  -7.5500994717148898e-02 -6.4259833658316095e-03 -1.4754599685072519e-04  -7.5493485948717493e-02 -6.4387685361161212e-03 -6.7522983749131724e-05  -7.1874672901932779e-02 -6.2493237059064108e-03 -1.2967743839866600e-04  -7.1871460741405269e-02 -6.2604379230377545e-03 -5.6082642720289597e-05  -6.8382636971371896e-02 -6.0636767502565718e-03 -1.1168854949780208e-04  -6.8382570170941334e-02 -6.0754046191917174e-03 -4.4579309838061723e-05  -6.5017555018016773e-02 -5.8828029740268292e-03 -9.4197836285794595e-05  -6.5020840233452906e-02 -5.8959874774670573e-03 -3.3704108400270525e-05  -6.1769201540934716e-02 -5.7300043379838973e-03 -7.8315884542204143e-05  -6.1776778954093912e-02 -5.7432183363324554e-03 -2.4104509864656014e-05  -5.8627793728616227e-02 -5.6303617030591868e-03 -6.5174251536478329e-05  -5.8638119981854357e-02 -5.6411805174567424e-03 -1.6291314439722185e-05  -5.5581292428371537e-02 -5.6007210691961032e-03 -5.5379855811516400e-05  -5.5590064375643199e-02 -5.6077252841521524e-03 -1.0539533319972959e-05  -5.2609982699933049e-02 -5.6470620784345830e-03 -4.9022074804357904e-05  -5.2612812565776157e-02 -5.6495729281366026e-03 -6.7946858356742144e-06  -7.9479265374320832e-02 -1.0451851790304703e-02 -1.5786367955737053e-04  -7.9469486967458675e-02 -1.0463824663084858e-02 -7.1574195477426485e-05  -7.5731405247208838e-02 -1.0150818248241648e-02 -1.4290254047736830e-04  -7.5725082021975421e-02 -1.0160145280506296e-02 -6.3263689003287469e-05  -7.2115538064682391e-02 -9.8375595710219754e-03 -1.2675998627997422e-04  -7.2111914993512161e-02 -9.8467434064484719e-03 -5.3633924817665767e-05  -6.8623350100748548e-02 -9.5236645780503310e-03 -1.0964993995756025e-04  -6.8621978090654151e-02 -9.5331572434271643e-03 -4.3270085503586000e-05  -6.5239055267506466e-02 -9.2280205078647155e-03 -9.2936782261769839e-05  -6.5241715411468434e-02 -9.2369973557727605e-03 -3.2880233106640853e-05  -6.1947597725680328e-02 -8.9723436774802982e-03 -7.8343570544156603e-05  -6.1955363377868666e-02 -8.9806763374649969e-03 -2.3306142726851554e-05  -5.8740668417840029e-02 -8.7778189904695030e-03 -6.6678280753741111e-05  -5.8751753009777426e-02 -8.7867925311237056e-03 -1.5369705537523419e-05  -5.5612870454395127e-02 -8.6646194131837165e-03 -5.8073390096932097e-05  -5.5623369499100815e-02 -8.6743640886583241e-03 -9.6202367315081767e-06  -5.2552405469164877e-02 -8.6490857052615062e-03 -5.2778693975582100e-05  -5.2559007806127010e-02 -8.6573129895624636e-03 -6.3699286323915675e-06  -7.6092249917707064e-02 -1.3863497440246004e-02 -1.3912955317068207e-04  -7.6086359430225195e-02 -1.3871756243639660e-02 -5.9963466924485752e-05  -7.9824883045794104e-02 -1.4296929546903541e-02 -1.4988494645007392e-04  -7.9812859307734851e-02 -1.4302280113005592e-02 -6.6351473185652921e-05  -7.2480094942789577e-02 -1.3423627563929796e-02 -1.2380001581167521e-04  -7.2475702617783411e-02 -1.3431342962352667e-02 -5.1601359544302448e-05  -6.8973741256854820e-02 -1.2998557447002465e-02 -1.0719430160373566e-04  -6.8972965895036348e-02 -1.3005028847812671e-02 -4.1640249530295143e-05  -6.5555056324710925e-02 -1.2609724072192423e-02 -9.1653185927791485e-05  -6.5558782060434168e-02 -1.2614113535840899e-02 -3.1143351744521669e-05  -6.2210682168339484e-02 -1.2273575135595263e-02 -7.8367140964959883e-05  -6.2217731014539687e-02 -1.2278022428520295e-02 -2.1238447072005168e-05  -5.8931587219890211e-02 -1.2005713155618903e-02 -6.7520978680313891e-05  -5.8940175547251554e-02 -1.2012956449441352e-02 -1.2810372779820221e-05  -5.5710368963813504e-02 -1.1826342628653869e-02 -5.9413847179303253e-05  -5.5719557475177796e-02 -1.1836734700120602e-02 -6.6025180078799526e-06  -5.2538601962652969e-02 -1.1758499554394940e-02 -5.4730737112089749e-05  -5.2547284917715563e-02 -1.1769373359598692e-02 -3.4433442894528142e-06  -7.6572612087052350e-02 -1.7567618216793233e-02 -1.3503887522479726e-04  -7.6562364841963410e-02 -1.7570805795057313e-02 -5.8570884096625285e-05  -8.0074684815595668e-02 -1.7896184394210354e-02 -1.1137513662169121e-04  -8.0054210924036417e-02 -1.7891129359833006e-02 -6.2946950283924619e-05  -7.2952612001690745e-02 -1.7020850549050216e-02 -1.2179083346325307e-04  -7.2949592246916661e-02 -1.7026250904812659e-02 -5.0793647662403200e-05  -6.9414159036878420e-02 -1.6505852221548795e-02 -1.0602008376345512e-04  -6.9415397980520849e-02 -1.6507962368279543e-02 -4.0304254945183067e-05  -6.5946103031605974e-02 -1.6041975559961130e-02 -9.1583742614499279e-05  -6.5950416289922181e-02 -1.6043300818627700e-02 -2.9054184922833644e-05  -6.2538303967184183e-02 -1.5642298368854699e-02 -7.8482444850689039e-05  -6.2543274087864864e-02 -1.5645439346369604e-02 -1.8165115465222371e-05  -5.9178957379588823e-02 -1.5321749425554938e-02 -6.7166285936605326e-05  -5.9184299921262180e-02 -1.5327891856513263e-02 -8.4767862383606600e-06  -5.5855930019898921e-02 -1.5099206871441289e-02 -5.8454590463218656e-05  -5.5862769994268403e-02 -1.5108062630689974e-02 -9.5247670757389593e-07  -5.2560725958236534e-02 -1.4996022176011372e-02 -5.3352512668253288e-05  -5.2568778645933269e-02 -1.5007220799492856e-02 3.1907497040831694e-06  -7.6935852693663306e-02 -2.1046813068987581e-02 -1.1423228227949070e-04  -7.6918425596167142e-02 -2.1038704374481295e-02 -6.1750198009315538e-05  -7.9376990868928368e-02 -2.0392472440127291e-02 -7.7249826428052652e-05  -7.9366184002050463e-02 -2.0396673098236125e-02 -6.0388604104646026e-05  -7.3509707331203933e-02 -2.0644682448891529e-02 -1.2284216188845971e-04  -7.3505615148786480e-02 -2.0641397679266128e-02 -5.2118519047550510e-05  -6.9926223151594746e-02 -2.0061589359994220e-02 -1.0741465719250548e-04  -6.9928914705427309e-02 -2.0061069680047106e-02 -3.9430622203193841e-05  -6.6397212712322615e-02 -1.9537303399064426e-02 -9.2553450711856664e-05  -6.6399797288145768e-02 -1.9537995180252361e-02 -2.6763374502899389e-05  -6.2913856175851823e-02 -1.9089436685721991e-02 -7.7855339241423438e-05  -6.2916274575095743e-02 -1.9092624905205732e-02 -1.3796029154732104e-05  -5.9462199898809610e-02 -1.8734940489400088e-02 -6.4741542488929614e-05  -5.9465260186481128e-02 -1.8739939006164004e-02 -1.9105338367855664e-06  -5.6029058344171545e-02 -1.8490221431848673e-02 -5.4146731690380552e-05  -5.6033176417925053e-02 -1.8497481773654408e-02 7.8542463113524581e-06  -5.2606232835109519e-02 -1.8370219856666238e-02 -4.6517838523186272e-05  -5.2609558715774885e-02 -1.8382493412159116e-02 1.4878939862596010e-05  -8.2173799182348323e-02 1.8092957095487017e-02 -1.8716023041641115e-04  -8.0896049002221332e-02 1.9903054767135605e-02 -2.8470279176280930e-04  -8.2389782227