<?xml version="1.0"?>
<VTKFile type="UnstructuredGrid"  version="0.1"  >
<UnstructuredGrid>
<Piece  NumberOfPoints="446" NumberOfCells="1503">
<Points>
<DataArray  type="Float64"  NumberOfComponents="3"  format="ascii">7.25 0 0  7.5 0 0  7.5 0.25 0  7.5 0.25 0.25  7.5 0 0.25  7.25 0 0.25  7.25 0.25 0  7.25 0.25 0.25  7.75 0 0  7.75 0.25 0  7.75 0.25 0.25  7.75 0 0.25  8 0 0  8 0.25 0  8 0.25 0.25  8 0 0.25  8.25 0 0  8.25 0.25 0  8.25 0.25 0.25  8.25 0 0.25  8.5 0 0  8.5 0.25 0  8.5 0.25 0.25  8.5 0 0.25  8.75 0 0  8.75 0.25 0  8.75 0.25 0.25  8.75 0 0.25  9 0 0  9 0.25 0  9 0.25 0.25  9 0 0.25  9.25 0 0  9.25 0.25 0  9.25 0.25 0.25  9.25 0 0.25  9.5 0 0  9.5 0.25 0  9.5 0.25 0.25  9.5 0 0.25  9.75 0 0  9.75 0.25 0  9.75 0.25 0.25  9.75 0 0.25  10 0 0  10 0.25 0  10 0.25 0.25  10 0 0.25  7.5 0.5 0  7.5 0.5 0.25  7.25 0.5 0  7.25 0.5 0.25  7.75 0.5 0  7.75 0.5 0.25  8 0.5 0  8 0.5 0.25  8.25 0.5 0  8.25 0.5 0.25  8.5 0.5 0  8.5 0.5 0.25  8.75 0.5 0  8.75 0.5 0.25  9 0.5 0  9 0.5 0.25  9.25 0.5 0  9.25 0.5 0.25  9.5 0.5 0  9.5 0.5 0.25  9.75 0.5 0  9.75 0.5 0.25  10 0.5 0  10 0.5 0.25  7.5 0.75 0  7.5 0.75 0.25  7.25 0.75 0  7.25 0.75 0.25  7.75 0.75 0  7.75 0.75 0.25  8 0.75 0  8 0.75 0.25  8.25 0.75 0  8.25 0.75 0.25  8.5 0.75 0  8.5 0.75 0.25  8.75 0.75 0  8.75 0.75 0.25  9 0.75 0  9 0.75 0.25  9.25 0.75 0  9.25 0.75 0.25  9.5 0.75 0  9.5 0.75 0.25  9.75 0.75 0  9.75 0.75 0.25  10 0.75 0  10 0.75 0.25  7.5 1 0  7.5 1 0.25  7.25 1 0  7.25 1 0.25  7.75 1 0  7.75 1 0.25  8 1 0  8 1 0.25  8.25 1 0  8.25 1 0.25  8.5 1 0  8.5 1 0.25  8.75 1 0  8.75 1 0.25  9 1 0  9 1 0.25  9.25 1 0  9.25 1 0.25  9.5 1 0  9.5 1 0.25  9.75 1 0  9.75 1 0.25  10 1 0  10 1 0.25  7.5 1.25 0  7.5 1.25 0.25  7.25 1.25 0  7.25 1.25 0.25  7.75 1.25 0  7.75 1.25 0.25  8 1.25 0  8 1.25 0.25  8.25 1.25 0  8.25 1.25 0.25  8.5 1.25 0  8.5 1.25 0.25  8.75 1.25 0  8.75 1.25 0.25  9 1.25 0  9 1.25 0.25  9.25 1.25 0  9.25 1.25 0.25  9.5 1.25 0  9.5 1.25 0.25  9.75 1.25 0  9.75 1.25 0.25  10 1.25 0  10 1.25 0.25  7.5 1.5 0  7.5 1.5 0.25  7.75 1.5 0  7.75 1.5 0.25  8 1.5 0  8 1.5 0.25  8.25 1.5 0  8.25 1.5 0.25  8.5 1.5 0  8.5 1.5 0.25  8.75 1.5 0  8.75 1.5 0.25  9 1.5 0  9 1.5 0.25  9.25 1.5 0  9.25 1.5 0.25  9.5 1.5 0  9.5 1.5 0.25  9.75 1.5 0  9.75 1.5 0.25  10 1.5 0  10 1.5 0.25  7.75 1.75 0  7.75 1.75 0.25  7.5 1.75 0  7.5 1.75 0.25  8 1.75 0  8 1.75 0.25  8.25 1.75 0  8.25 1.75 0.25  8.5 1.75 0  8.5 1.75 0.25  8.75 1.75 0  8.75 1.75 0.25  9 1.75 0  9 1.75 0.25  9.25 1.75 0  9.25 1.75 0.25  9.5 1.75 0  9.5 1.75 0.25  9.75 1.75 0  9.75 1.75 0.25  10 1.75 0  10 1.75 0.25  7.75 2 0  7.75 2 0.25  7.5 2 0  7.5 2 0.25  8 2 0  8 2 0.25  8.25 2 0  8.25 2 0.25  8.5 2 0  8.5 2 0.25  8.75 2 0  8.75 2 0.25  9 2 0  9 2 0.25  9.25 2 0  9.25 2 0.25  9.5 2 0  9.5 2 0.25  9.75 2 0  9.75 2 0.25  10 2 0  10 2 0.25  7.75 2.25 0  7.75 2.25 0.25  7.5 2.25 0  7.5 2.25 0.25  8 2.25 0  8 2.25 0.25  8.25 2.25 0  8.25 2.25 0.25  8.5 2.25 0  8.5 2.25 0.25  8.75 2.25 0  8.75 2.25 0.25  9 2.25 0  9 2.25 0.25  9.25 2.25 0  9.25 2.25 0.25  9.5 2.25 0  9.5 2.25 0.25  9.75 2.25 0  9.75 2.25 0.25  10 2.25 0  10 2.25 0.25  7.75 2.5 0  7.75 2.5 0.25  7.5 2.5 0  7.5 2.5 0.25  8 2.5 0  8 2.5 0.25  8.25 2.5 0  8.25 2.5 0.25  8.5 2.5 0  8.5 2.5 0.25  8.75 2.5 0  8.75 2.5 0.25  9 2.5 0  9 2.5 0.25  9.25 2.5 0  9.25 2.5 0.25  9.5 2.5 0  9.5 2.5 0.25  9.75 2.5 0  9.75 2.5 0.25  10 2.5 0  10 2.5 0.25  7.75 2.75 0  7.75 2.75 0.25  7.5 2.75 0  7.5 2.75 0.25  8 2.75 0  8 2.75 0.25  8.25 2.75 0  8.25 2.75 0.25  8.5 2.75 0  8.5 2.75 0.25  8.75 2.75 0  8.75 2.75 0.25  9 2.75 0  9 2.75 0.25  9.25 2.75 0  9.25 2.75 0.25  9.5 2.75 0  9.5 2.75 0.25  9.75 2.75 0  9.75 2.75 0.25  10 2.75 0  10 2.75 0.25  7.75 3 0  7.75 3 0.25  7.5 3 0  7.5 3 0.25  8 3 0  8 3 0.25  8.25 3 0  8.25 3 0.25  8.5 3 0  8.5 3 0.25  8.75 3 0  8.75 3 0.25  9 3 0  9 3 0.25  9.25 3 0  9.25 3 0.25  9.5 3 0  9.5 3 0.25  9.75 3 0  9.75 3 0.25  10 3 0  10 3 0.25  7.5 0.25 0.5  7.5 0 0.5  7.25 0 0.5  7.25 0.25 0.5  7.75 0.25 0.5  7.75 0 0.5  8 0.25 0.5  8 0 0.5  8.25 0.25 0.5  8.25 0 0.5  8.5 0.25 0.5  8.5 0 0.5  8.75 0.25 0.5  8.75 0 0.5  9 0.25 0.5  9 0 0.5  9.25 0.25 0.5  9.25 0 0.5  9.5 0.25 0.5  9.5 0 0.5  9.75 0.25 0.5  9.75 0 0.5  10 0.25 0.5  10 0 0.5  7.5 0.5 0.5  7.25 0.5 0.5  7.75 0.5 0.5  8 0.5 0.5  8.25 0.5 0.5  8.5 0.5 0.5  8.75 0.5 0.5  9 0.5 0.5  9.25 0.5 0.5  9.5 0.5 0.5  9.75 0.5 0.5  10 0.5 0.5  7.5 0.75 0.5  7.25 0.75 0.5  7.75 0.75 0.5  8 0.75 0.5  8.25 0.75 0.5  8.5 0.75 0.5  8.75 0.75 0.5  9 0.75 0.5  9.25 0.75 0.5  9.5 0.75 0.5  9.75 0.75 0.5  10 0.75 0.5  7.5 1 0.5  7.25 1 0.5  7.75 1 0.5  8 1 0.5  8.25 1 0.5  8.5 1 0.5  8.75 1 0.5  9 1 0.5  9.25 1 0.5  9.5 1 0.5  9.75 1 0.5  10 1 0.5  7.5 1.25 0.5  7.75 1.25 0.5  8 1.25 0.5  8.25 1.25 0.5  8.5 1.25 0.5  8.75 1.25 0.5  9 1.25 0.5  9.25 1.25 0.5  9.5 1.25 0.5  9.75 1.25 0.5  10 1.25 0.5  7.5 1.5 0.5  7.75 1.5 0.5  8 1.5 0.5  8.25 1.5 0.5  8.5 1.5 0.5  8.75 1.5 0.5  9 1.5 0.5  9.25 1.5 0.5  9.5 1.5 0.5  9.75 1.5 0.5  10 1.5 0.5  7.75 1.75 0.5  7.5 1.75 0.5  8 1.75 0.5  8.25 1.75 0.5  8.5 1.75 0.5  8.75 1.75 0.5  9 1.75 0.5  9.25 1.75 0.5  9.5 1.75 0.5  9.75 1.75 0.5  10 1.75 0.5  7.75 2 0.5  7.5 2 0.5  8 2 0.5  8.25 2 0.5  8.5 2 0.5  8.75 2 0.5  9 2 0.5  9.25 2 0.5  9.5 2 0.5  9.75 2 0.5  10 2 0.5  7.75 2.25 0.5  7.5 2.25 0.5  8 2.25 0.5  8.25 2.25 0.5  8.5 2.25 0.5  8.75 2.25 0.5  9 2.25 0.5  9.25 2.25 0.5  9.5 2.25 0.5  9.75 2.25 0.5  10 2.25 0.5  7.75 2.5 0.5  7.5 2.5 0.5  8 2.5 0.5  8.25 2.5 0.5  8.5 2.5 0.5  8.75 2.5 0.5  9 2.5 0.5  9.25 2.5 0.5  9.5 2.5 0.5  9.75 2.5 0.5  10 2.5 0.5  7.75 2.75 0.5  7.5 2.75 0.5  8 2.75 0.5  8.25 2.75 0.5  8.5 2.75 0.5  8.75 2.75 0.5  9 2.75 0.5  9.25 2.75 0.5  9.5 2.75 0.5  9.75 2.75 0.5  10 2.75 0.5  7.75 3 0.5  7.5 3 0.5  8 3 0.5  8.25 3 0.5  8.5 3 0.5  8.75 3 0.5  9 3 0.5  9.25 3 0.5  9.5 3 0.5  9.75 3 0.5  10 3 0.5  </DataArray>
</Points>
<Cells>
[...]
<PointData  Vectors="f_12"> 
<DataArray  type="Float64"  Name="f_12"  NumberOfComponents="3" format="ascii">-2.0640478131004173e-02 2.0398115188490083e-02 4.3521927317329951e-05  -1.8861479720040243e-02 1.8979393121013703e-02 4.6931711591112005e-05  -1.7395009873294086e-02 1.7126103428422409e-02 4.9748484869007289e-05  -1.7388692777286763e-02 1.7125169539499642e-02 6.4507942328097386e-05  -1.8858430388670539e-02 1.8974826398198991e-02 5.8118203517743133e-05  -2.0633815997947516e-02 2.0396673098239136e-02 6.0388604104033058e-05  -1.9964523853603821e-02 1.7878377629907290e-02 1.4349046669412785e-05  -1.9945789075961610e-02 1.7891129359835906e-02 6.2946950283768616e-05  -1.7177250997433877e-02 1.7335937532588851e-02 4.3942346368112381e-05  -1.5483364837202517e-02 1.5566582303039386e-02 5.2062359812965898e-05  -1.5479680902951062e-02 1.5561228579266635e-02 6.4248287394986280e-05  -1.7173500480678713e-02 1.7330769659690989e-02 5.5794437704644876e-05  -1.5446445001514304e-02 1.5595391854141310e-02 3.7993109620786136e-05  -1.3655914462155713e-02 1.3775039477554546e-02 4.9297790393591823e-05  -1.3649470431832745e-02 1.3767207520854188e-02 6.1883102873606298e-05  -1.5441329178691614e-02 1.5589787004559824e-02 5.1435699240394086e-05  -1.3645585253543683e-02 1.3777143944300577e-02 2.7712525196502551e-05  -1.1788810588271130e-02 1.1894540949006875e-02 4.4380202062176072e-05  -1.1771827662046869e-02 1.1876859182959998e-02 5.7030979429147643e-05  -1.3638579910700581e-02 1.3768765398581542e-02 4.2873396584081954e-05  -1.1779528355165741e-02 1.1894038967465975e-02 1.1021841822126896e-05  -9.8826901193122593e-03 9.9682655663653127e-03 3.5991865157137203e-05  -9.8420117799534849e-03 9.9253008080644606e-03 5.0665561264153884e-05  -1.1763505045557151e-02 1.1876339187531495e-02 2.7800607016416686e-05  -9.8732929825714796e-03 9.9700194520316969e-03 -7.4767971526194199e-06  -7.9459197465888802e-03 8.0126289792230819e-03 1.6949659658615217e-05  -7.8776422990481532e-03 7.9412801022510863e-03 4.5952740569872743e-05  -9.8326955019578284e-03 9.9256263604072387e-03 5.9795566554949564e-06  -7.9407507542573925e-03 8.0199567991056531e-03 -2.7403245623091509e-05  -5.9372243392014088e-03 5.9835304021914190e-03 -6.0279264538941828e-05  -5.9030725749150085e-03 5.9456542753798542e-03 4.7943372170950062e-05  -7.8744154232382752e-03 7.9494009571885738e-03 -6.6562172396603667e-06  -5.9935588140655654e-03 6.0601789381558137e-03 -6.6508778598145491e-05  -3.7197933894755606e-03 3.7381016772009053e-03 -6.1976401431285868e-05  -3.8192323120846755e-03 3.8388055584728841e-03 3.9255747438803073e-05  -5.9067989131052845e-03 5.9653058902033379e-03 3.1024558123826066e-05  -3.9476114426658434e-03 4.0006337005085478e-03 -4.0070718204679787e-04  -1.5973149909335423e-03 1.5962420033227805e-03 6.7063663497377474e-05  -1.7156443533560314e-03 1.7120677628980970e-03 5.7632777803492003e-05  -4.1135909522495269e-03 4.1481105296012500e-03 8.4592872662444469e-05  -1.6491989976421732e-03 1.6317928892538797e-03 9.8499798824181682e-05  -2.1605835458070980e-04 2.1638072292012032e-04 1.8537280509689177e-04  -2.0894236827601097e-04 1.9342403740844644e-04 2.7885505124962869e-05  -1.7654875329692981e-03 1.7535584525104049e-03 7.7547086694954839e-05  0.0000000000000000e+00 0.0000000000000000e+00 0.0000000000000000e+00  0.0000000000000000e+00 0.0000000000000000e+00 0.0000000000000000e+00  0.0000000000000000e+00 0.0000000000000000e+00 0.0000000000000000e+00  0.0000000000000000e+00 0.0000000000000000e+00 0.0000000000000000e+00  -1.6571029779255210e-02 1.4481861366600081e-02 2.3757274775071778e-05  -1.6550934716791067e-02 1.4494200512266395e-02 7.1290385986214701e-05  -2.0196041752135716e-02 1.4299565552610067e-02 -1.6635862421904249e-05  -2.0187140692263458e-02 1.4302280113008194e-02 6.6351473185761030e-05  -1.3868449875253432e-02 1.3573592127389397e-02 6.0748907391771315e-05  -1.3858921249588091e-02 1.3569185893860825e-02 7.3817192882607010e-05  -1.1827071207799704e-02 1.1869195571086890e-02 6.2217433050239932e-05  -1.1810748385049617e-02 1.1850703093918323e-02 7.4824849608805632e-05  -9.8906730348049671e-03 9.9632431741509212e-03 5.6970634905528249e-05  -9.8531383726901435e-03 9.9235435476524303e-03 7.4811951681214397e-05  -7.9335285185434291e-03 7.9903119874289458e-03 2.6845818910993336e-05  -7.8788239274606986e-03 7.9336979552979744e-03 7.7234288879311612e-05  -5.8482581791827071e-03 5.8789000257592101e-03 -2.0202665442948866e-05  -5.8570995633122199e-03 5.8873062989982889e-03 7.1625582274831208e-05  -3.6271478263407916e-03 3.6293955423180261e-03 1.5442678508900705e-05  -3.7278869909717544e-03 3.7326912065644849e-03 4.8436165175255047e-05  -1.6451617015459370e-03 1.6297707613001115e-03 6.3279129491488592e-05  -1.7411928059358837e-03 1.7266805581706989e-03 3.8868046273338115e-05  -3.4196521464571088e-04 3.2274539260600027e-04 1.2768712960311009e-04  -3.2073828352360243e-04 3.0177412668154561e-04 2.3140867059669423e-05  1.2045109463576750e-04 -1.2772433416959164e-04 3.9128442316412896e-05  2.0882831993234905e-04 -2.1912962686155445e-04 -1.2931294781857030e-06  0.0000000000000000e+00 0.0000000000000000e+00 0.0000000000000000e+00  0.0000000000000000e+00 0.0000000000000000e+00 0.0000000000000000e+00  -1.6671013654930556e-02 1.0750191706929601e-02 -1.0181244556228747e-05  -1.6657799921512704e-02 1.0748005493647043e-02 7.8571518003726356e-05  -2.0533787374507298e-02 1.0469502627120179e-02 -1.4033288027292988e-05  -2.0530513032539881e-02 1.0463824663087188e-02 7.1574195477646347e-05  -1.2893479549511496e-02 1.0809798484440749e-02 3.9554561828701991e-05  -1.2859204486951598e-02 1.0809348763104293e-02 8.5237639090548112e-05  -1.0086231369029126e-02 9.7658925173052490e-03 6.9283436775389491e-05  -1.0049650311399287e-02 9.7333232071699430e-03 9.0544633188800145e-05  -7.9355265889976840e-03 7.9309076886947775e-03 3.8150082244260948e-05  -7.9004792569697582e-03 7.8929009582697513e-03 9.5175582994229751e-05  -5.7799316882323473e-03 5.7943964874456293e-03 1.4671284599585141e-05  -5.8179967609522628e-03 5.8331886642274929e-03 8.7959129083842373e-05  -3.5862887175213999e-03 3.5773932734981160e-03 5.2432019532949709e-05  -3.6915887045172562e-03 3.6861529792516609e-03 6.4574905878828705e-05  -1.6986002353472122e-03 1.6717288532801544e-03 7.5080828956911773e-05  -1.7815870105259571e-03 1.7571302976459504e-03 4.3686341271289983e-05  -4.3040762093834149e-04 3.9989370182644067e-04 1.0316896446140687e-04  -4.0975821203285360e-04 3.8026010771555625e-04 2.6458375187542706e-05  1.0518599726364542e-04 -1.2608922913341327e-04 4.4690193879627489e-05  2.1147538558610474e-04 -2.3307110761244495e-04 2.0474760471993351e-06  6.2057830452990004e-05 -7.1999622022845638e-05 -9.7579544619055131e-05  1.1687371732665462e-04 -1.2612050152129576e-04 -1.6326445050345162e-05  0.0000000000000000e+00 0.0000000000000000e+00 0.0000000000000000e+00  0.0000000000000000e+00 0.0000000000000000e+00 0.0000000000000000e+00  -1.6875855607615509e-02 6.7785491257946282e-03 -4.7218142111213301e-06  -1.6859595581369062e-02 6.7593132297446403e-03 8.8745832155096287e-05  -2.0756484019002777e-02 6.6165467717035076e-03 -6.9184051519918979e-06  -2.0749578024246873e-02 6.6047708509694427e-03 7.8449349942965929e-05  -1.2880064255444289e-02 6.9276529268161424e-03 -1.0520806702155635e-05  -1.2846950153117681e-02 6.9044359193769361e-03 9.8569296994380272e-05  -8.9284199111137295e-03 6.8595729699013133e-03 2.1290633144938772e-05  -8.8960046078900203e-03 6.8634336738016295e-03 1.0579509674430584e-04  -5.9079600603153034e-03 5.5565777486336464e-03 4.7135765507974679e-05  -5.9624508601887321e-03 5.6175555261972609e-03 9.8814720589660837e-05  -3.5976412069194256e-03 3.5327977916200519e-03 7.1731958670435809e-05  -3.7079588823199982e-03 3.6447806494501610e-03 7.8751007985474456e-05  -1.7498557247266440e-03 1.7103456595793474e-03 8.6080646270595527e-05  -1.8273946103557785e-03 1.7903935647314475e-03 5.5829210782497857e-05  -5.0025220045173775e-04 4.6125238954137718e-04 9.7985362419599137e-05  -4.7855422513081391e-04 4.4086998945015233e-04 3.7806363734136998e-05  8.0490773599846071e-05 -1.1250457576011051e-04 5.1398390444471457e-05  1.9183028199825275e-04 -2.2367787869082679e-04 1.5604781561735352e-05  1.1172317850182950e-04 -1.3314307281018907e-04 -3.6185031610460113e-05  2.0611385716986521e-04 -2.2687620236722905e-04 -4.0511057744695846e-07  1.2551653016082218e-05 -2.3505520064357921e-05 -6.9881310578893906e-05  1.5386580768735164e-05 -2.6046413628743433e-05 -1.0445735631754206e-05  0.0000000000000000e+00 0.0000000000000000e+00 0.0000000000000000e+00  0.0000000000000000e+00 0.0000000000000000e+00 0.0000000000000000e+00  -1.6955837392939981e-02 2.7771857741859343e-03 -7.7024351703663812e-06  -1.6936332065582052e-02 2.7522922279915323e-03 1.0224624588525123e-04  -2.0850095158922478e-02 2.7545460853819481e-03 -8.0537812587654824e-07  -2.0836678784877726e-02 2.7336473853303853e-03 8.7747407498519261e-05  -1.2900796054762166e-02 2.7599198271581679e-03 -2.3303451491162992e-05  -1.2905466721554971e-02 2.7621049095392413e-03 1.1040804225958627e-04  -8.6721457728545000e-03 2.6748652227987601e-03 -2.5360717682859753e-05  -8.7379855522825255e-03 2.7529379956937909e-03 1.0655445170926974e-04  -4.5800978730011098e-03 2.5342153141918577e-03 6.2051228333612657e-05  -4.6725794387733628e-03 2.6698329888172438e-03 9.0442282196598513e-05  -1.9541356525606579e-03 1.5870573508975094e-03 1.0763446315922226e-04  -2.0260289624470201e-03 1.6655118136410388e-03 6.7982681392823269e-05  -5.7813869124694755e-04 4.9105103063671479e-04 1.0242458933762930e-04  -5.5721213214711613e-04 4.6935785078877239e-04 5.1469119186241901e-05  5.4881481122647411e-05 -9.9094943015998321e-05 6.2682368637567866e-05  1.6582924625267294e-04 -2.0984226001963485e-04 3.2787926569359443e-05  1.4689103553733546e-04 -1.7772475518354028e-04 4.0603099354522326e-06  2.5930860434936686e-04 -2.8971381337383056e-04 1.4952170565514913e-05  4.4591067017437912e-05 -6.5747008153642318e-05 -5.2238104114676512e-05  6.5419749937592405e-05 -8.5806085553340709e-05 -3.0446151726402794e-06  3.4184685056695977e-07 -1.1258804457238296e-05 -9.7202770788094221e-06  -7.0094473727145897e-06 -3.9657563405827813e-06 -2.0037407320748090e-06  0.0000000000000000e+00 0.0000000000000000e+00 0.0000000000000000e+00  0.0000000000000000e+00 0.0000000000000000e+00 0.0000000000000000e+00  -1.6844142456879183e-02 -1.2977516003568888e-03 -1.1252736186837498e-05  -1.6865317673158055e-02 -1.2831806944458232e-03 1.1119707188769751e-04  -1.2729699477294069e-02 -1.5022546398740671e-03 -8.2452006952877929e-06  -1.2813044531212679e-02 -1.4212618874434100e-03 1.1123536144364418e-04  -8.6247870929367851e-03 -1.5697803429455235e-03 8.9769063858985310e-06  -8.7389053545848874e-03 -1.4549166573413924e-03 9.8216747831566891e-05  -4.8030770403859509e-03 -1.2277536376617546e-03 2.9570032209447071e-05  -4.8690186684137255e-03 -1.1503051859869675e-03 7.8286645132662409e-05  -1.5574082095760511e-03 -4.0475151328163504e-04 1.1433690356142670e-04  -1.5141131776037911e-03 -4.0425848503087349e-04 6.4656934284779803e-05  -1.0584681451580863e-04 -2.2333494416904687e-04 9.6007241793452831e-05  3.3567675850189776e-06 -3.2968314733837961e-04 4.8687299415319520e-05  1.5367398853407987e-04 -2.2630481230787042e-04 3.7154088774323318e-05  2.7363062233544253e-04 -3.4796297454591575e-04 2.9763507657653317e-05  7.2018508131459991e-05 -1.0447572295517430e-04 -2.8538921908119604e-05  1.1267033737412574e-04 -1.4451569738473918e-04 9.1385717538745695e-06  6.4609822969630474e-06 -2.7065888123583850e-05 -1.3782798210725051e-05  -1.3108719212558682e-06 -1.9326075933055150e-05 3.7521950884149922e-06  -5.9121112807387516e-06 -4.5023743663520818e-06 1.1770717392804350e-05  -1.0090078677147025e-05 -2.5395433260352671e-07 4.2125373088310860e-06  0.0000000000000000e+00 0.0000000000000000e+00 0.0000000000000000e+00  0.0000000000000000e+00 0.0000000000000000e+00 0.0000000000000000e+00  -1.2601316495781147e-02 -5.5948897916975127e-03 2.3543680836821868e-05  -1.2717523383054857e-02 -5.4825839426087810e-03 1.0564208767814296e-04  -1.6558492736208439e-02 -5.4260358604551430e-03 5.2636175833460111e-06  -1.6652122222201735e-02 -5.3404430513827941e-03 1.1187786890437465e-04  -8.9224464504813993e-03 -5.3503358842530010e-03 4.0962388595794952e-05  -8.9917905364231190e-03 -5.2833117452820025e-03 9.1257655350078631e-05  -5.6866146340566982e-03 -4.5263923585913577e-03 5.6499715537297168e-05  -5.6653402468349696e-03 -4.5493631740516644e-03 7.8637013339617672e-05  -2.9485968147516211e-03 -3.0721871955284650e-03 4.8036417022895666e-05  -2.8395110448763061e-03 -3.1737044247314985e-03 6.5014716182206758e-05  -6.9703138836966127e-04 -1.1189022426806464e-03 9.9344294364795766e-05  -5.4901753864125633e-04 -1.2204904487356772e-03 4.8924457292376520e-05  -1.8588730995898621e-05 -2.4986546782676354e-04 2.3567858093498546e-05  3.9805281381612810e-05 -3.0709211849449391e-04 2.7217143826340208e-05  -1.7196759812180092e-06 -5.2852126965419503e-05 -2.3663582300976021e-06  -3.8631774672869326e-06 -5.2442632263225245e-05 1.5864439658410297e-05  -1.1584167688245848e-05 -9.6317071270778412e-06 1.9252016402156165e-05  -1.8339540161558984e-05 -3.0737688881995787e-06 1.3465920772726651e-05  -1.0316201569498313e-05 2.6301111557570192e-07 1.8097456361058917e-05  -1.2791079974573627e-05 2.6672256845894820e-06 7.6364084644287736e-06  0.0000000000000000e+00 0.0000000000000000e+00 0.0000000000000000e+00  0.0000000000000000e+00 0.0000000000000000e+00 0.0000000000000000e+00  -1.2796400695420127e-02 -9.2291236755357216e-03 5.5610414104195932e-05  -1.2865545764239358e-02 -9.1684177282457223e-03 1.0533505300138831e-04  -1.6331889134767741e-02 -9.3628793654857399e-03 3.4324536291783746e-05  -1.6450744204657138e-02 -9.2560826117842297e-03 1.0977857335736146e-04  -9.6871880830727806e-03 -8.5284315697572183e-03 7.3921921095061578e-05  -9.6680645988664743e-03 -8.5541161630660265e-03 9.8292416619702319e-05  -7.0552469499279222e-03 -7.2171823263221862e-03 6.7653668677037499e-05  -6.9540011561215406e-03 -7.3228278133162204e-03 8.7041267436175861e-05  -4.8386211275160329e-03 -5.3622544651315707e-03 5.5308464350505929e-05  -4.7141073489916432e-03 -5.4886549782197482e-03 6.9436926084991154e-05  -2.8336939832438149e-03 -3.1614679241941022e-03 6.9896159000241587e-06  -2.7606531830404500e-03 -3.2291164134600424e-03 4.8546613614707513e-05  -7.7543968838832329e-04 -8.5718653668281073e-04 6.8070573939330487e-05  -7.4204497250476137e-04 -8.4047798614614463e-04 3.5588984510143357e-05  -1.0252325883102758e-04 -1.0027474358948522e-04 5.8417415496017895e-05  -1.1071775823203120e-04 -9.4535309657311337e-05 2.7454647032767295e-05  -2.8429130968842262e-05 -7.3828112565835176e-06 3.4117535449952557e-05  -3.3791442725386959e-05 -3.3482575183635051e-06 1.9933005069414480e-05  -1.1955050992424494e-05 1.7234539227820789e-06 2.2169979805542267e-05  -1.3437229295570150e-05 3.0738907219327442e-06 1.0338306162745472e-05  0.0000000000000000e+00 0.0000000000000000e+00 0.0000000000000000e+00  0.0000000000000000e+00 0.0000000000000000e+00 0.0000000000000000e+00  -1.3433905135911502e-02 -1.2281137491505122e-02 9.6150705406720753e-05  -1.3418893119366537e-02 -1.2311203487662278e-02 1.2216803019728838e-04  -1.6410780970648318e-02 -1.2849021625414001e-02 6.7859514234427801e-05  -1.6482568469087792e-02 -1.2798004257974362e-02 1.1691868762117003e-04  -1.0913704825208774e-02 -1.1113173694672079e-02 9.7015245465730104e-05  -1.0817447643712522e-02 -1.1219843530142087e-02 1.1713896900007734e-04  -8.7975871769460593e-03 -9.4077255297849091e-03 8.8061720818381460e-05  -8.6729689792996636e-03 -9.5393784865516022e-03 9.9885594936767084e-05  -6.9108848957679207e-03 -7.3463720611373863e-03 4.1594347526680510e-05  -6.8281304413090188e-03 -7.4329749723642006e-03 7.6827474697632522e-05  -5.0047182871241222e-03 -5.1815176220088256e-03 1.6759773412732980e-05  -4.9830459279305937e-03 -5.2041585592158815e-03 5.8479274157894819e-05  -2.9640795820907516e-03 -3.0059767863273683e-03 2.1687302143900940e-05  -2.9692368328885698e-03 -2.9999801736622258e-03 4.6533670487298037e-05  -7.1683879605302333e-04 -6.9023809740631872e-04 1.1302493372065736e-04  -6.9678880111563623e-04 -6.5638599802296440e-04 3.8643148654569214e-05  -7.9430571187722802e-05 -5.3334998194079668e-05 6.4846148199796709e-05  -8.5175673850696512e-05 -5.3262196463049048e-05 2.5587388921836879e-05  -1.5702365639543057e-05 -1.8778796754522899e-06 2.7920742197084601e-05  -1.6062788054129639e-05 -1.9330314492934279e-06 1.2739632344933829e-05  0.0000000000000000e+00 0.0000000000000000e+00 0.0000000000000000e+00  0.0000000000000000e+00 0.0000000000000000e+00 0.0000000000000000e+00  -1.4513190071848462e-02 -1.4749274363048032e-02 1.3742540736008075e-04  -1.4425690133398287e-02 -1.4860243497787029e-02 1.5687741784086503e-04  -1.6907519658911269e-02 -1.5762875979776686e-02 1.1861069773924339e-04  -1.6899375208789723e-02 -1.5801092943576706e-02 1.4572532213155838e-04  -1.2507213868059863e-02 -1.3199336662384991e-02 1.3420601032631109e-04  -1.2385864170071322e-02 -1.3336300658085354e-02 1.4543750550650498e-04  -1.0739262265299044e-02 -1.1274466223548258e-02 9.0654465369186793e-05  -1.0646867036468477e-02 -1.1376452981821560e-02 1.1833000871076795e-04  -8.9666838074376320e-03 -9.2252352521488487e-03 5.7540845017100910e-05  -8.9337625492344527e-03 -9.2645844056284815e-03 9.1829594163244421e-05  -7.0686643777329635e-03 -7.1748556791516984e-03 4.9341713875544928e-05  -7.0729150268732353e-03 -7.1747062347624537e-03 7.1721950895320058e-05  -5.0666415458476876e-03 -5.1060596758497620e-03 4.0493429695305386e-05  -5.0746849638541296e-03 -5.0981963252265203e-03 5.7900061277191788e-05  -2.9689377886641041e-03 -2.9775191622242953e-03 2.1123498159894308e-05  -2.9749503251434396e-03 -2.9756653208828582e-03 4.5409380132892074e-05  -5.6591244875890678e-04 -5.4274235687126673e-04 1.2705865971290354e-04  -5.4455432463265576e-04 -5.2026385974341728e-04 3.0482587168233469e-05  -3.6855770619957277e-05 -2.4525736807880933e-05 5.2381569292394102e-05  -4.0350406843083933e-05 -2.8822960943534268e-05 1.5395472129188729e-05  0.0000000000000000e+00 0.0000000000000000e+00 0.0000000000000000e+00  0.0000000000000000e+00 0.0000000000000000e+00 0.0000000000000000e+00  -1.5952752844295846e-02 -1.6710665536423242e-02 2.0496741043076738e-04  -1.5836558132911738e-02 -1.6858438911667762e-02 2.1448299843543299e-04  -1.7826200817651166e-02 -1.8092957095485820e-02 1.8716023041642302e-04  -1.7745601748792892e-02 -1.8209293768749673e-02 2.0219858951365106e-04  -1.4311008422724042e-02 -1.4940148871984485e-02 1.6342244172297402e-04  -1.4215855340957482e-02 -1.5058352747185933e-02 1.8773929912169470e-04  -1.2683022798145526e-02 -1.3011738123857001e-02 1.1652017263654704e-04  -1.2639609811721702e-02 -1.3070053092204716e-02 1.4475275440136055e-04  -1.0920709259430604e-02 -1.1081292015500578e-02 9.0077431360782162e-05  -1.0922782350317829e-02 -1.1088445075003674e-02 1.0831086038122302e-04  -9.0438769032495109e-03 -9.1354173507001302e-03 6.9519072993400085e-05  -9.0560642629994113e-03 -9.1295297217425329e-03 8.3764501099034587e-05  -7.0825818500232784e-03 -7.1473672362595371e-03 4.8084004163022733e-05  -7.0900582252318876e-03 -7.1442603392401416e-03 6.4259919131787793e-05  -5.0566976605022473e-03 -5.1033607973848096e-03 2.9488160358463639e-05  -5.0569546490607806e-03 -5.1028263821036868e-03 4.7662091365571493e-05  -2.9506466662986537e-03 -2.9766009958992800e-03 -1.8059863169636168e-05  -2.9548825446560406e-03 -2.9829959806899615e-03 3.8347815690336792e-05  -3.4370946158851154e-04 -3.3583795480460736e-04 1.4646383010491970e-04  -3.3378862691292474e-04 -3.2450133177821318e-04 1.7341669523183343e-05  0.0000000000000000e+00 0.0000000000000000e+00 0.0000000000000000e+00  0.0000000000000000e+00 0.0000000000000000e+00 0.0000000000000000e+00  -1.7610217772303063e-02 -1.8299117480082096e-02 2.7292392359078155e-04  -1.7504088310167538e-02 -1.8441192888516859e-02 3.1999437773542989e-04  -1.9103950997778611e-02 -1.9903