<?xml version="1.0"?>
<VTKFile type="UnstructuredGrid"  version="0.1"  >
<UnstructuredGrid>
<Piece  NumberOfPoints="442" NumberOfCells="1495">
<Points>
<DataArray  type="Float64"  NumberOfComponents="3"  format="ascii">4.75 0 0  5 0 0  5 0.25 0  5 0.25 0.25  5 0 0.25  4.75 0 0.25  4.75 0.25 0  4.75 0.25 0.25  5.25 0 0  5.25 0.25 0  5.25 0.25 0.25  5.25 0 0.25  5.5 0 0  5.5 0.25 0  5.5 0.25 0.25  5.5 0 0.25  5.75 0 0  5.75 0.25 0  5.75 0.25 0.25  5.75 0 0.25  6 0 0  6 0.25 0  6 0.25 0.25  6 0 0.25  6.25 0 0  6.25 0.25 0  6.25 0.25 0.25  6.25 0 0.25  6.5 0 0  6.5 0.25 0  6.5 0.25 0.25  6.5 0 0.25  6.75 0 0  6.75 0.25 0  6.75 0.25 0.25  6.75 0 0.25  7 0 0  7 0.25 0  7 0.25 0.25  7 0 0.25  7.25 0 0  7.25 0.25 0  7.25 0.25 0.25  7.25 0 0.25  5 0.5 0  5 0.5 0.25  4.75 0.5 0  4.75 0.5 0.25  5.25 0.5 0  5.25 0.5 0.25  5.5 0.5 0  5.5 0.5 0.25  5.75 0.5 0  5.75 0.5 0.25  6 0.5 0  6 0.5 0.25  6.25 0.5 0  6.25 0.5 0.25  6.5 0.5 0  6.5 0.5 0.25  6.75 0.5 0  6.75 0.5 0.25  7 0.5 0  7 0.5 0.25  7.25 0.5 0  7.25 0.5 0.25  5 0.75 0  5 0.75 0.25  4.75 0.75 0  4.75 0.75 0.25  5.25 0.75 0  5.25 0.75 0.25  5.5 0.75 0  5.5 0.75 0.25  5.75 0.75 0  5.75 0.75 0.25  6 0.75 0  6 0.75 0.25  6.25 0.75 0  6.25 0.75 0.25  6.5 0.75 0  6.5 0.75 0.25  6.75 0.75 0  6.75 0.75 0.25  7 0.75 0  7 0.75 0.25  7.25 0.75 0  7.25 0.75 0.25  5 1 0  5 1 0.25  4.75 1 0  4.75 1 0.25  5.25 1 0  5.25 1 0.25  5.5 1 0  5.5 1 0.25  5.75 1 0  5.75 1 0.25  6 1 0  6 1 0.25  6.25 1 0  6.25 1 0.25  6.5 1 0  6.5 1 0.25  6.75 1 0  6.75 1 0.25  7 1 0  7 1 0.25  7.25 1 0  7.25 1 0.25  5 1.25 0  5 1.25 0.25  4.75 1.25 0  4.75 1.25 0.25  5.25 1.25 0  5.25 1.25 0.25  5.5 1.25 0  5.5 1.25 0.25  5.75 1.25 0  5.75 1.25 0.25  6 1.25 0  6 1.25 0.25  6.25 1.25 0  6.25 1.25 0.25  6.5 1.25 0  6.5 1.25 0.25  6.75 1.25 0  6.75 1.25 0.25  7 1.25 0  7 1.25 0.25  7.25 1.25 0  7.25 1.25 0.25  5 1.5 0  5 1.5 0.25  4.75 1.5 0  4.75 1.5 0.25  5.25 1.5 0  5.25 1.5 0.25  5.5 1.5 0  5.5 1.5 0.25  5.75 1.5 0  5.75 1.5 0.25  6 1.5 0  6 1.5 0.25  6.25 1.5 0  6.25 1.5 0.25  6.5 1.5 0  6.5 1.5 0.25  6.75 1.5 0  6.75 1.5 0.25  7 1.5 0  7 1.5 0.25  7.25 1.5 0  7.25 1.5 0.25  7.5 1.5 0  7.5 1.5 0.25  5 1.75 0  5 1.75 0.25  4.75 1.75 0  4.75 1.75 0.25  5.25 1.75 0  5.25 1.75 0.25  5.5 1.75 0  5.5 1.75 0.25  5.75 1.75 0  5.75 1.75 0.25  6 1.75 0  6 1.75 0.25  6.25 1.75 0  6.25 1.75 0.25  6.5 1.75 0  6.5 1.75 0.25  6.75 1.75 0  6.75 1.75 0.25  7 1.75 0  7 1.75 0.25  7.25 1.75 0  7.25 1.75 0.25  7.5 1.75 0  7.5 1.75 0.25  5 2 0  5 2 0.25  4.75 2 0  4.75 2 0.25  5.25 2 0  5.25 2 0.25  5.5 2 0  5.5 2 0.25  5.75 2 0  5.75 2 0.25  6 2 0  6 2 0.25  6.25 2 0  6.25 2 0.25  6.5 2 0  6.5 2 0.25  6.75 2 0  6.75 2 0.25  7 2 0  7 2 0.25  7.25 2 0  7.25 2 0.25  7.5 2 0  7.5 2 0.25  5 2.25 0  5 2.25 0.25  4.75 2.25 0  4.75 2.25 0.25  5.25 2.25 0  5.25 2.25 0.25  5.5 2.25 0  5.5 2.25 0.25  5.75 2.25 0  5.75 2.25 0.25  6 2.25 0  6 2.25 0.25  6.25 2.25 0  6.25 2.25 0.25  6.5 2.25 0  6.5 2.25 0.25  6.75 2.25 0  6.75 2.25 0.25  7 2.25 0  7 2.25 0.25  7.25 2.25 0  7.25 2.25 0.25  7.5 2.25 0  7.5 2.25 0.25  5 2.5 0  5 2.5 0.25  4.75 2.5 0  4.75 2.5 0.25  5.25 2.5 0  5.25 2.5 0.25  5.5 2.5 0  5.5 2.5 0.25  5.75 2.5 0  5.75 2.5 0.25  6 2.5 0  6 2.5 0.25  6.25 2.5 0  6.25 2.5 0.25  6.5 2.5 0  6.5 2.5 0.25  6.75 2.5 0  6.75 2.5 0.25  7 2.5 0  7 2.5 0.25  7.25 2.5 0  7.25 2.5 0.25  7.5 2.5 0  7.5 2.5 0.25  5 2.75 0  5 2.75 0.25  4.75 2.75 0  4.75 2.75 0.25  5.25 2.75 0  5.25 2.75 0.25  5.5 2.75 0  5.5 2.75 0.25  5.75 2.75 0  5.75 2.75 0.25  6 2.75 0  6 2.75 0.25  6.25 2.75 0  6.25 2.75 0.25  6.5 2.75 0  6.5 2.75 0.25  6.75 2.75 0  6.75 2.75 0.25  7 2.75 0  7 2.75 0.25  7.25 2.75 0  7.25 2.75 0.25  7.5 2.75 0  7.5 2.75 0.25  5 3 0  5 3 0.25  4.75 3 0  4.75 3 0.25  5.25 3 0  5.25 3 0.25  5.5 3 0  5.5 3 0.25  5.75 3 0  5.75 3 0.25  6 3 0  6 3 0.25  6.25 3 0  6.25 3 0.25  6.5 3 0  6.5 3 0.25  6.75 3 0  6.75 3 0.25  7 3 0  7 3 0.25  7.25 3 0  7.25 3 0.25  7.5 3 0  7.5 3 0.25  5 0.25 0.5  5 0 0.5  4.75 0 0.5  4.75 0.25 0.5  5.25 0.25 0.5  5.25 0 0.5  5.5 0.25 0.5  5.5 0 0.5  5.75 0.25 0.5  5.75 0 0.5  6 0.25 0.5  6 0 0.5  6.25 0.25 0.5  6.25 0 0.5  6.5 0.25 0.5  6.5 0 0.5  6.75 0.25 0.5  6.75 0 0.5  7 0.25 0.5  7 0 0.5  7.25 0.25 0.5  7.25 0 0.5  5 0.5 0.5  4.75 0.5 0.5  5.25 0.5 0.5  5.5 0.5 0.5  5.75 0.5 0.5  6 0.5 0.5  6.25 0.5 0.5  6.5 0.5 0.5  6.75 0.5 0.5  7 0.5 0.5  7.25 0.5 0.5  5 0.75 0.5  4.75 0.75 0.5  5.25 0.75 0.5  5.5 0.75 0.5  5.75 0.75 0.5  6 0.75 0.5  6.25 0.75 0.5  6.5 0.75 0.5  6.75 0.75 0.5  7 0.75 0.5  7.25 0.75 0.5  5 1 0.5  5.25 1 0.5  5.5 1 0.5  5.75 1 0.5  6 1 0.5  6.25 1 0.5  6.5 1 0.5  6.75 1 0.5  7 1 0.5  7.25 1 0.5  5 1.25 0.5  5.25 1.25 0.5  5.5 1.25 0.5  5.75 1.25 0.5  6 1.25 0.5  6.25 1.25 0.5  6.5 1.25 0.5  6.75 1.25 0.5  7 1.25 0.5  7.25 1.25 0.5  7.5 1.25 0.5  5 1.5 0.5  5.25 1.5 0.5  5.5 1.5 0.5  5.75 1.5 0.5  6 1.5 0.5  6.25 1.5 0.5  6.5 1.5 0.5  6.75 1.5 0.5  7 1.5 0.5  7.25 1.5 0.5  7.5 1.5 0.5  5 1.75 0.5  5.25 1.75 0.5  5.5 1.75 0.5  5.75 1.75 0.5  6 1.75 0.5  6.25 1.75 0.5  6.5 1.75 0.5  6.75 1.75 0.5  7 1.75 0.5  7.25 1.75 0.5  7.5 1.75 0.5  5 2 0.5  5.25 2 0.5  5.5 2 0.5  5.75 2 0.5  6 2 0.5  6.25 2 0.5  6.5 2 0.5  6.75 2 0.5  7 2 0.5  7.25 2 0.5  7.5 2 0.5  5 2.25 0.5  5.25 2.25 0.5  5.5 2.25 0.5  5.75 2.25 0.5  6 2.25 0.5  6.25 2.25 0.5  6.5 2.25 0.5  6.75 2.25 0.5  7 2.25 0.5  7.25 2.25 0.5  7.5 2.25 0.5  5 2.5 0.5  5.25 2.5 0.5  5.5 2.5 0.5  5.75 2.5 0.5  6 2.5 0.5  6.25 2.5 0.5  6.5 2.5 0.5  6.75 2.5 0.5  7 2.5 0.5  7.25 2.5 0.5  7.5 2.5 0.5  5 2.75 0.5  5.25 2.75 0.5  5.5 2.75 0.5  5.75 2.75 0.5  6 2.75 0.5  6.25 2.75 0.5  6.5 2.75 0.5  6.75 2.75 0.5  7 2.75 0.5  7.25 2.75 0.5  7.5 2.75 0.5  5 3 0.5  5.25 3 0.5  5.5 3 0.5  5.75 3 0.5  6 3 0.5  6.25 3 0.5  6.5 3 0.5  6.75 3 0.5  7 3 0.5  7.25 3 0.5  7.5 3 0.5  </DataArray>
</Points>
<Cells>
[...]
<PointData  Vectors="f_12"> 
<DataArray  type="Float64"  Name="f_12"  NumberOfComponents="3" format="ascii">-5.4225899225024771e-02 1.8615084433079361e-02 -6.6904530698139766e-05  -5.0807752792588694e-02 1.8429645302583644e-02 -7.6883115298667101e-05  -5.0701502426301587e-02 1.5062065190810048e-02 -5.7913772544622376e-05  -5.0705859093611139e-02 1.5044941357430784e-02 -2.0075930440198962e-06  -5.0809743471528369e-02 1.8410415354374453e-02 -1.6641319855372306e-05  -5.4225851010617852e-02 1.8593597648872803e-02 -6.5805731285191237e-06  -5.3970264279429872e-02 1.5249109217841391e-02 -4.8361142256265192e-05  -5.3969626020557729e-02 1.5232116841710336e-02 7.2235643987401192e-06  -4.7387836796703331e-02 1.8397565160706206e-02 -7.5498027486721315e-05  -4.7425859670878742e-02 1.5023109536147985e-02 -5.9753199161215767e-05  -4.7431221354065238e-02 1.5007220799495114e-02 -3.1907497053452693e-06  -4.7390441284223442e-02 1.8382493412161478e-02 -1.4878939864304951e-05  -4.3965446890630484e-02 1.8509216924717721e-02 -6.9049787037016392e-05  -4.4132487111746284e-02 1.5121034786848798e-02 -5.6508596431680237e-05  -4.4137230005730041e-02 1.5108062630692316e-02 9.5247670642096265e-07  -4.3966823582073197e-02 1.8497481773656885e-02 -7.8542463130138302e-06  -4.0534146361971682e-02 1.8748796597330364e-02 -6.0134418118750950e-05  -4.0811218723009364e-02 1.5336520294745302e-02 -5.0194343480691339e-05  -4.0815700078736208e-02 1.5327891856515730e-02 8.4767862373105424e-06  -4.0534739813517115e-02 1.8739939006166564e-02 1.9105338352004751e-06  -3.7082646271063426e-02 1.9098046761666067e-02 -4.9519385902016334e-05  -3.7452051582853613e-02 1.5650192153521137e-02 -4.2077760426053028e-05  -3.7456725912133483e-02 1.5645439346372126e-02 1.8165115464290130e-05  -3.7083725424902417e-02 1.9092624905208425e-02 1.3796029153481813e-05  -3.3598230822051177e-02 1.9540235284994639e-02 -3.8230826652402534e-05  -3.4046039976691138e-02 1.6046266724279321e-02 -3.3253694973484172e-05  -3.4049583710076124e-02 1.6043300818630327e-02 2.9054184922021438e-05  -3.3600202711852323e-02 1.9537995180255157e-02 2.6763374501775641e-05  -3.0069988898441258e-02 2.0061646487740670e-02 -2.7468576209528424e-05  -3.0583968712107876e-02 1.6511643126276197e-02 -2.5233923426696017e-05  -3.0584602019477384e-02 1.6507962368282222e-02 4.0304254944522781e-05  -3.0071085294570764e-02 2.0061069680049993e-02 3.9430622202326215e-05  -2.6501978750649188e-02 2.0636876993443048e-02 -1.7201672956405987e-05  -2.7052973422124205e-02 1.7030725619541897e-02 -2.0127608179597380e-05  -2.7050407753081523e-02 1.7026250904815413e-02 5.0793647661890406e-05  -2.6494384851211476e-02 2.0641397679269084e-02 5.2118519046797247e-05  -2.3101006916639903e-02 2.1026632272788656e-02 1.0453666463939647e-05  -2.3447160769980633e-02 1.7568367196076892e-02 -1.7555824501588399e-05  -2.3437635158034719e-02 1.7570805795060148e-02 5.8570884096276646e-05  -2.3081574403830744e-02 2.1038704374484414e-02 6.1750198008599097e-05  -2.0640478131004173e-02 2.0398115188490083e-02 4.3521927317329951e-05  -1.9964523853603821e-02 1.7878377629907290e-02 1.4349046669412785e-05  -1.9945789075961610e-02 1.7891129359835906e-02 6.2946950283768616e-05  -2.0633815997947516e-02 2.0396673098239136e-02 6.0388604104033058e-05  -5.0587846182791670e-02 1.1841431020792659e-02 -4.6045660809695473e-05  -5.0590931700943233e-02 1.1827800288873069e-02 4.3034129163469252e-06  -5.3718482398073010e-02 1.2028779762544387e-02 -4.0196450137614411e-05  -5.3715304927887529e-02 1.2019242805836980e-02 9.9047772941999968e-06  -4.7446022150704432e-02 1.1784414336510143e-02 -4.7806028617604118e-05  -4.7452715082283096e-02 1.1769373359600849e-02 3.4433442885997818e-06  -4.4271922314122282e-02 1.1849565530631812e-02 -4.6086833032176767e-05  -4.4280442524820808e-02 1.1836734700122800e-02 6.6025180070745276e-06  -4.1051103696581492e-02 1.2021943938416480e-02 -4.1718078132939371e-05  -4.1059824452747036e-02 1.2012956449443639e-02 1.2810372779093983e-05  -3.7775514029819608e-02 1.2284345435210682e-02 -3.5662261646172080e-05  -3.7782268985458854e-02 1.2278022428522667e-02 2.1238447071364859e-05  -3.4437920056064636e-02 1.2620300112959745e-02 -2.9249082809767247e-05  -3.4441217939564332e-02 1.2614113535843290e-02 3.1143351743995241e-05  -3.1027000817406006e-02 1.3011622791263774e-02 -2.4030266063009978e-05  -3.1027034104962090e-02 1.3005028847815131e-02 4.1640249529941260e-05  -2.7525561499609157e-02 1.3437022795577378e-02 -2.0735990161983283e-05  -2.7524297382215006e-02 1.3431342962355161e-02 5.1601359544074292e-05  -2.3915484002450894e-02 1.3875707336425982e-02 -1.9042318788666832e-05  -2.3913640569773170e-02 1.3871756243642196e-02 5.9963466924410731e-05  -2.0196041752135716e-02 1.4299565552610067e-02 -1.6635862421904249e-05  -2.0187140692263458e-02 1.4302280113008194e-02 6.6351473185761030e-05  -5.0462854116857511e-02 8.7511403980332844e-03 -3.9573199219359063e-05  -5.0462262507870156e-02 8.7435497276782351e-03 5.7891620183974173e-06  -5.3477194598330648e-02 8.9377539970767420e-03 -3.7731199053774747e-05  -5.3468978905277097e-02 8.9357761544787608e-03 7.6961055374419538e-06  -4.7434562007778840e-02 8.6680940231114705e-03 -3.9948239051443541e-05  -4.7440992193871795e-02 8.6573129895644776e-03 6.3699286317733301e-06  -4.4365823450394720e-02 8.6856341718595381e-03 -3.8600351607060954e-05  -4.4376630500897941e-02 8.6743640886604110e-03 9.6202367309252148e-06  -4.1237323901343208e-02 8.7974509724262889e-03 -3.5630742542321707e-05  -4.1248246990221303e-02 8.7867925311258550e-03 1.5369705537113980e-05  -3.8037036026542466e-02 8.9909857302019232e-03 -3.1552669200912063e-05  -3.8044636622130042e-02 8.9806763374671895e-03 2.3306142726482221e-05  -3.4754679251250323e-02 9.2466214861500525e-03 -2.7261736854932372e-05  -3.4758284588530232e-02 9.2369973557750087e-03 3.2880233106398161e-05  -3.1376452418025384e-02 9.5411983627244276e-03 -2.3275766341786426e-05  -3.1378021909344495e-02 9.5331572434294246e-03 4.3270085503357789e-05  -2.7887454102511790e-02 9.8528269384655313e-03 -1.9551701714353338e-05  -2.7888085006486429e-02 9.8467434064507635e-03 5.3633924817630808e-05  -2.4275753570187356e-02 1.0165520107805536e-02 -1.6315751773873180e-05  -2.4274917978023159e-02 1.0160145280508584e-02 6.3263689003425813e-05  -2.0533787374507298e-02 1.0469502627120179e-02 -1.4033288027292988e-05  -2.0530513032539881e-02 1.0463824663087188e-02 7.1574195477646347e-05  -5.0324358392556279e-02 5.7656453841891343e-03 -3.6366611728642964e-05  -5.0319478912807518e-02 5.7663778014772167e-03 4.7442912815254040e-06  -5.3250684627971230e-02 5.9514336331591361e-03 -3.7760799085011564e-05  -5.3238211029715571e-02 5.9560234313729352e-03 3.8397009323348205e-06  -4.7383565145086001e-02 5.6535532510156410e-03 -3.5333535445393606e-05  -4.7387187434222794e-02 5.6495729281385134e-03 6.7946858352272597e-06  -4.4400824631139174e-02 5.6164528190895393e-03 -3.4091406276939868e-05  -4.4409935624355690e-02 5.6077252841541247e-03 1.0539533319612255e-05  -4.1351701022456555e-02 5.6537203273077348e-03 -3.2369618666345666e-05  -4.1361880018144517e-02 5.6411805174587668e-03 1.6291314439405252e-05  -3.8214869644329658e-02 5.7569946840293840e-03 -3.0022196959676689e-05  -3.8223221045904893e-02 5.7432183363345206e-03 2.4104509864450405e-05  -3.4972950888643765e-02 5.9080881264978345e-03 -2.6815933331000491e-05  -3.4979159766545885e-02 5.8959874774691381e-03 3.3704108400145686e-05  -3.1613223299970440e-02 6.0846459607816370e-03 -2.2548315857334738e-05  -3.1617429829057436e-02 6.0754046191938259e-03 4.4579309838016925e-05  -2.8126793248961422e-02 6.2685226616951487e-03 -1.7361467459148730e-05  -2.8128539258593498e-02 6.2604379230398752e-03 5.6082642720409361e-05  -2.4508395223516825e-02 6.4476147689207994e-03 -1.1826173480774303e-05  -2.4506514051281261e-02 6.4387685361182506e-03 6.7522983749388274e-05  -2.0756484019002777e-02 6.6165467717035076e-03 -6.9184051519918979e-06  -2.0749578024246873e-02 6.6047708509694427e-03 7.8449349942965929e-05  -5.0172274213093219e-02 2.8555799833157548e-03 -3.5512503506310438e-05  -5.0163849545568552e-02 2.8639307392922704e-03 2.5641198638644580e-06  -5.3042584338277736e-02 3.0382671945562174e-03 -3.9063583407334583e-05  -5.3030111937484130e-02 3.0466876390420352e-03 -5.1970791972915217e-08  -4.7290935460821734e-02 2.7151914903210650e-03 -3.3687968092415163e-05  -4.7288802761937775e-02 2.7181876544827861e-03 5.6095473713778439e-06  -4.4368823477011279e-02 2.6213489056272216e-03 -3.2752531073630636e-05  -4.4372166447143806e-02 2.6163436021555127e-03 9.7447140524414141e-06  -4.1376661618072644e-02 2.5738801296175205e-03 -3.2010051151485310e-05  -4.1383743027835103e-02 2.5621897091776878e-03 1.5513366867163993e-05  -3.8285359652731547e-02 2.5676045634563955e-03 -3.0565370872345824e-05  -3.8294596931134628e-02 2.5531862671213617e-03 2.3281640004527330e-05  -3.5071790777817261e-02 2.5922731855727221e-03 -2.7396996892682729e-05  -3.5080940792061019e-02 2.5785289533770692e-03 3.3198555871634106e-05  -3.1723509161072701e-02 2.6345327995122444e-03 -2.1909052051044684e-05  -3.1729636944389759e-02 2.6217095397758259e-03 4.5113786283834598e-05  -2.8236816764461332e-02 2.6809532377184927e-03 -1.4365012611171864e-05  -2.8237295830364120e-02 2.6674728842466982e-03 5.8553852135242970e-05  -2.4611296117575874e-02 2.7221230165770638e-03 -6.1440545622935819e-06  -2.4605399938822641e-02 2.7058642201982634e-03 7.2940902451310149e-05  -2.0850095158922478e-02 2.7545460853819481e-03 -8.0537812587654824e-07  -2.0836678784877726e-02 2.7336473853303853e-03 8.7747407498519261e-05  -5.0009897512888493e-02 -1.1269510107446194e-05 -3.6979494556295404e-05  -4.9999999999999510e-02 9.2963836126426650e-16 -1.7055711101315914e-16  -5.2860289251370582e-02 1.6035576740133388e-04 -4.1468146948632634e-05  -5.2852050427116153e-02 1.6856795510831077e-04 -3.2898814335091832e-06  -4.7156676160300365e-02 -1.7652897728525642e-04 -3.5005924585183041e-05  -4.7147949572882840e-02 -1.6856795510644294e-04 3.2898814331724829e-06  -4.4264667450633177e-02 -3.2858075337432205e-04 -3.4574745341086930e-05  -4.4260585263059364e-02 -3.2803443293181539e-04 7.2931288000357507e-06  -4.1299990141584100e-02 -4.6689244875744749e-04 -3.4372453740758591e-05  -4.1302505050381293e-02 -4.7362270278279099e-04 1.2746927946212528e-05  -3.8231940669706525e-02 -5.9284237341683153e-04 -3.2963604371749454e-05  -3.8239911151220093e-02 -6.0481947041045542e-04 2.0411483218440344e-05  -3.5036190311123538e-02 -7.0657207673477059e-04 -2.8960734020376447e-05  -3.5045126293433995e-02 -7.2260543730017597e-04 3.0924043219236279e-05  -3.1697978480719403e-02 -8.0982290988097999e-04 -2.1524755132777278e-05  -3.1702346133243894e-02 -8.2961657023867435e-04 4.4575279296206719e-05  -2.8211268813606593e-02 -9.0958512648944422e-04 -1.1475256663863942e-05  -2.8208638987489230e-02 -9.3230406301339800e-04 6.1215632623935011e-05  -2.4576344898849977e-02 -1.0155247622136842e-03 -2.8756735677593364e-06  -2.4567911993395013e-02 -1.0386966841909226e-03 8.0078816364536668e-05  -2.0795698585159901e-02 -1.1339238804020538e-03 -5.7257475828881023e-06  -2.0786319054495885e-02 -1.1541410515585116e-03 9.9539160642702845e-05  -1.6844142456879183e-02 -1.2977516003568888e-03 -1.1252736186837498e-05  -1.6865317673158055e-02 -1.2831806944458232e-03 1.1119707188769751e-04  -4.9844799626133605e-02 -2.8724874665320907e-03 -4.0719254540063968e-05  -4.9836150454430440e-02 -2.8639307392903791e-03 -2.5641198641548078e-06  -5.2713592269734863e-02 -2.7221938124026932e-03 -4.4924898038798773e-05  -5.2711197238061239e-02 -2.7181876544809173e-03 -5.6095473717066908e-06  -4.6982000916505590e-02 -3.0562407508174828e-03 -3.9148941516836051e-05  -4.6969888062514877e-02 -3.0466876390401899e-03 5.1970791670374411e-08  -4.4085412240852370e-02 -3.2661661635550402e-03 -3.9319453972175363e-05  -4.4075414863025492e-02 -3.2593557665850023e-03 3.0517477695418498e-06  -4.1117988987845674e-02 -3.4962665328943420e-03 -3.9547340233571561e-05  -4.1114273612506622e-02 -3.4958137348637675e-03 7.5205041297229675e-06  -3.8050504925357463e-02 -3.7408660819747905e-03 -3.7775439407025532e-05  -3.8052075910550064e-02 -3.7497049183030889e-03 1.4805018105318016e-05  -3.4860077016269177e-02 -3.9931664646892474e-03 -3.2316962096158926e-05  -3.4862220532427525e-02 -4.0127396215705819e-03 2.6236428352466003e-05  -3.1526550930495577e-02 -4.2488589692288902e-03 -2.2828165936117503e-05  -3.1526066737706991e-02 -4.2763134827446979e-03 4.2718756208218487e-05  -2.8034482287839627e-02 -4.5104216068381576e-03 -1.2405290712681208e-05  -2.8033287702589914e-02 -4.5374081008282899e-03 6.4098027675421561e-05  -2.4379858648907703e-02 -4.7829545696517579e-03 -1.0071708384226497e-05  -2.4383680776950141e-02 -4.8001396692214588e-03 8.8254057351557069e-05  -2.0544604321077610e-02 -5.0956101100868064e-03 -5.7922096034704459e-06  -2.0581586359720141e-02 -5.0725864247092587e-03 1.0546611311646689e-04  -1.6558492736208439e-02 -5.4260358604551430e-03 5.2636175833460111e-06  -1.6652122222201735e-02 -5.3404430513827941e-03 1.1187786890437465e-04  -4.9685209445925659e-02 -5.7690779795840259e-03 -4.5910238686794653e-05  -4.9680521087191440e-02 -5.7663778014753328e-03 -4.7442912819901524e-06  -5.2609982699933049e-02 -5.6470620784345830e-03 -4.9022074804357904e-05  -5.2612812565776157e-02 -5.6495729281366026e-03 -6.7946858356742144e-06  -4.6772160082105524e-02 -5.9638501617156814e-03 -4.5539485686225855e-05  -4.6761788970283394e-02 -5.9560234313710591e-03 -3.8397009328065230e-06  -4.3833856283196526e-02 -6.2246922297028830e-03 -4.6898893233097152e-05  -4.3821248652364385e-02 -6.2148172651714491e-03 -3.0985811535669441e-06  -4.0835364710286384e-02 -6.5395148697528077e-03 -4.8135272400523971e-05  -4.0823191069994748e-02 -6.5346521457893200e-03 -8.2570622131715667e-07  -3.7746975246279582e-02 -6.8945638031455442e-03 -4.6593424589617892e-05  -3.7735966546050971e-02 -6.9022065049872188e-03 5.3481994226523193e-06  -3.4542022236217551e-02 -7.2812733509198110e-03 -4.0254725775681522e-05  -3.4533408036393883e-02 -7.3020941184554107e-03 1.7887901638937140e-05  -3.1192685066428083e-02 -7.6978348677139751e-03 -3.0318389310721688e-05  -3.1192665603523521e-02 -7.7217308899638955e-03 3.8307641547681391e-05  -2.7679544949721285e-02 -8.1390355567772799e-03 -2.4051372973847073e-05  -2.7695639691036326e-02 -8.1516030068422805e-03 6.5448024889167686e-05  -2.3981164373362614e-02 -8.6137082798262449e-03 -1.1136062370236022e-05  -2.4034832259636572e-02 -8.5859350223838875e-03 8.9254310516940173e-05  -2.0138277451573136e-02 -9.0805033025042926e-03 9.5767692026070840e-06  -2.0242573357949711e-02 -8.9954004258445477e-03 1.0492452641125072e-04  -1.6331889134767741e-02 -9.3628793654857399e-03 3.4324536291783746e-05  -1.6450744204657138e-02 -9.2560826117842297e-03 1.0977857335736146e-04  -4.9536735467373132e-02 -8.7402297776700173e-03 -5.1114907294947592e-05  -4.9537737492128718e-02 -8.7435497276763200e-03 -5.7891620191252617e-06  -5.2552405469164877e-02 -8.6490857052615062e-03 -5.2778693975582100e-05  -5.2559007806127010e-02 -8.6573129895624636e-03 -6.3699286323915675e-06  -4.6536652026018949e-02 -8.9386994787992481e-03 -5.2955029874403837e-05  -4.6531021094721799e-02 -8.9357761544768734e-03 -7.6961055380957040e-06  -4.3522124606157779e-02 -9.2370219145239390e-03 -5.7208167982105058e-05  -4.3508628340100698e-02 -9.2311481744475586e-03 -1.0992046388375253e-05  -4.0463337360750362e-02 -9.6214968244549264e-03 -6.1566271760488922e-05  -4.0441987490792704e-02 -9.6195782085027187e-03 -1.3084370440801181e-05  -3.7326835713135123e-02 -1.0078632631162477e-02 -6.2716540871578374e-05  -3.7303517889294653e-02 -1.0084925459929405e-02 -9.9055885797967385e-06  -3.4075176058553751e-02 -1.0602422880248307e-02 -5.8332736044278508e-05  -3.4064269201588782e-02 -1.0610853646345158e-02 2.8543341677925724e-06  -3.0679623297401079e-02 -1.1186373264747904e-02 -5.1751833805860063e-05  -3.0696658048055846e-02 -1.1182773299871971e-02 2.7410355517689825e-05  -2.7120211131826968e-02 -1.1820697754936754e-02 -3.3121665501143170e-05  -2.7183618017603602e-02 -1.1781859007539003e-02 5.5858325054676995e-05  -2.3437049047545289e-02 -1.2438061358525015e-02 -2.0031248789059269e-06  -2.3550142275155131e-02 -1.2353284033057467e-02 8.3183519428590275e-05  -1.9794952032474559e-02 -1.2854525568904958e-02 3.5429191298274397e-05  -1.9917993406812457e-02 -1.2757210754477740e-02 1.0430503058465548e-04  -1.6410780970648318e-02 -1.2849021625414001e-02 6.7859514234427801e-05  -1.6482568469087792e-02 -1.2798004257974362e-02 1.1691868762117003e-04  -4.9403549149379652e-02 -1.1819339965546394e-02 -5.4487404276414735e-05  -4.9409068299055496e-02 -1.1827800288871048e-02 -4.3034129172633268e-06  -5.2538601962652969e-02 -1.1758499554394940e-02 -5.4730737112089749e-05  -5.2547284917715563e-02 -1.1769373359598692e-02 -3.4433442894528142e-06  -4.6287102597948243e-02 -1.2013469619223146e-02 -5.9532717015176452e-05  -4.6284695072111276e-02 -1.2019242805835044e-02 -9.9047772950841298e-06  -4.3166728250918072e-02 -1.2335002143273098e-02 -6.9582653866079620e-05  -4.3151926533799533e-02 -1.2340222880111358e-02 -1.9650642402179595e-05  -4.0013255693830338e-02 -1.2775854907875526e-02 -8.2012407577780025e-05  -3.9988323184522868e-02 -1.2780367424048226e-02 -3.0167419325242397e-05  -3.6787102222080474e-02 -1.3332655489930947e-02 -9.1580505239517840e-05  -3.6767874580887046e-02 -1.3327503629032155e-02 -3.4723925028410288e-05  -3.3450797616516377e-02 -1.3996231904212487e-02 -9.4283759142188285e-05  -3.3460096870529171e-02 -1.3968803215024318e-02 -2.5494104148774657e-05  -2.9984739845022163e-02 -1.4742181518168210e-02 -7.9587787183031157e-05  -3.0044533575926971e-02 -1.4679042501836551e-02 -2.0066938474126186e-06  -2.6436632477183246e-02 -1.5484586792495644e-02 -4.0749173680753657e-05  -2.6545379955791749e-02 -1.5389038557199209e-02 3.3243244982201700e-05  -2.2956321958929396e-02 -1.6038030760348355e-02 1.3392491267177271e-05  -2.3075906213338018e-02 -1.5944330813594199e-02 7.5000909557074142e-05  -1.9736484900266613e-02 -1.6179305536697271e-02 6.7573116371563182e-05  -1.9809523077730477e-02 -1.6137944555793024e-02 1.1501288181286589e-04  -1.6907519658911269e-02 -1.5762875979776686e-02 1.1861069773924339e-04  -1.6899375208789723e-02 -1.5801092943576706e-02 1.4572532213155838e-04  -4.9288930589724583e-02 -1.5031025347299278e-02 -5.3676320640325440e-05  -4.9294140906387417e-02 -1.5044941357428626e-02 2.0075930426872893e-06  -5.2560725958236534e-02 -1.4996022176011372e-02 -5.3352512668253288e-05  -5.2568778645933269e-02 -1.5007220799492856e-02 3.1907497040831694e-06  -4.6033783218331910e-02 -1.5215173388605837e-02 -6.2430165511737532e-05  -4.6030373979440944e-02 -1.5232116841708276e-02 -7.2235644000033722e-06  -4.2777376713359218e-02 -1.5552960252833453e-02 -8.2210668657918017e-05  -4.2764492275056527e-02 -1.5568594630758588e-02 -2.6391988965959275e-05  -3.9486827806488725e-02 -1.6049388702169570e-02 -1.1112778468355088e-04  -3.9476463860253982e-02 -1.6048872437172013e-02 -5.2886227614865949e-05  -3.6125809979003470e-02 -1.6704050348484944e-02 -1.3975064208758030e-04  -3.6140655966758715e-02 -1.6666338117430918e-02 -7.5921597731795721e-05  -3.2680450953175740e-02 -1.7487474340791166e-02 -1.4850371198193199e-04  -3.2739300713176496e-02 -1.7400916973021974e-02 -8.1662665482282865e-05  -2.9205318212412890e-02 -1.8295016317581864e-02 -1.1807380245693093e-04  -2.9300218386571399e-02 -1.8179590563735769e-02 -5.9935467667465464e-05  -2.5838536020762859e-02 -1.8939267116197062e-02 -5.8267166767811017e-05  -2.5937854219143727e-02 -1.8836893388988078e-02 -4.3997239522157605e-06  -2.2756213928089977e-02 -1.9203546983901285e-02 2.8151766207803939e-05  -2.2815591808031867e-02 -1.9160892856698277e-02 7.1770555229801533e-05  -2.0075923050368320e-02 -1.8938541142410517e-02 1.2368141349108349e-04  -2.0066007336442888e-02 -1.8979847670143799e-02 1.4919702823729415e-04  -1.7826200817651166e-02 -1.8092957095485820e-02 1.8716023041642302e-04  -1.7745601748792892e-02 -1.8209293768749673e-02 2.0219858951365106