<?xml version="1.0"?>
<VTKFile type="UnstructuredGrid"  version="0.1"  >
<UnstructuredGrid>
<Piece  NumberOfPoints="1599" NumberOfCells="5760">
<Points>
<DataArray  type="Float64"  NumberOfComponents="3"  format="ascii">0 0 0  0.25 0 0  0.5 0 0  0.75 0 0  1 0 0  1.25 0 0  1.5 0 0  1.75 0 0  2 0 0  2.25 0 0  2.5 0 0  2.75 0 0  3 0 0  3.25 0 0  3.5 0 0  3.75 0 0  4 0 0  4.25 0 0  4.5 0 0  4.75 0 0  5 0 0  5.25 0 0  5.5 0 0  5.75 0 0  6 0 0  6.25 0 0  6.5 0 0  6.75 0 0  7 0 0  7.25 0 0  7.5 0 0  7.75 0 0  8 0 0  8.25 0 0  8.5 0 0  8.75 0 0  9 0 0  9.25 0 0  9.5 0 0  9.75 0 0  10 0 0  0 0.25 0  0.25 0.25 0  0.5 0.25 0  0.75 0.25 0  1 0.25 0  1.25 0.25 0  1.5 0.25 0  1.75 0.25 0  2 0.25 0  2.25 0.25 0  2.5 0.25 0  2.75 0.25 0  3 0.25 0  3.25 0.25 0  3.5 0.25 0  3.75 0.25 0  4 0.25 0  4.25 0.25 0  4.5 0.25 0  4.75 0.25 0  5 0.25 0  5.25 0.25 0  5.5 0.25 0  5.75 0.25 0  6 0.25 0  6.25 0.25 0  6.5 0.25 0  6.75 0.25 0  7 0.25 0  7.25 0.25 0  7.5 0.25 0  7.75 0.25 0  8 0.25 0  8.25 0.25 0  8.5 0.25 0  8.75 0.25 0  9 0.25 0  9.25 0.25 0  9.5 0.25 0  9.75 0.25 0  10 0.25 0  0 0.5 0  0.25 0.5 0  0.5 0.5 0  0.75 0.5 0  1 0.5 0  1.25 0.5 0  1.5 0.5 0  1.75 0.5 0  2 0.5 0  2.25 0.5 0  2.5 0.5 0  2.75 0.5 0  3 0.5 0  3.25 0.5 0  3.5 0.5 0  3.75 0.5 0  4 0.5 0  4.25 0.5 0  4.5 0.5 0  4.75 0.5 0  5 0.5 0  5.25 0.5 0  5.5 0.5 0  5.75 0.5 0  6 0.5 0  6.25 0.5 0  6.5 0.5 0  6.75 0.5 0  7 0.5 0  7.25 0.5 0  7.5 0.5 0  7.75 0.5 0  8 0.5 0  8.25 0.5 0  8.5 0.5 0  8.75 0.5 0  9 0.5 0  9.25 0.5 0  9.5 0.5 0  9.75 0.5 0  10 0.5 0  0 0.75 0  0.25 0.75 0  0.5 0.75 0  0.75 0.75 0  1 0.75 0  1.25 0.75 0  1.5 0.75 0  1.75 0.75 0  2 0.75 0  2.25 0.75 0  2.5 0.75 0  2.75 0.75 0  3 0.75 0  3.25 0.75 0  3.5 0.75 0  3.75 0.75 0  4 0.75 0  4.25 0.75 0  4.5 0.75 0  4.75 0.75 0  5 0.75 0  5.25 0.75 0  5.5 0.75 0  5.75 0.75 0  6 0.75 0  6.25 0.75 0  6.5 0.75 0  6.75 0.75 0  7 0.75 0  7.25 0.75 0  7.5 0.75 0  7.75 0.75 0  8 0.75 0  8.25 0.75 0  8.5 0.75 0  8.75 0.75 0  9 0.75 0  9.25 0.75 0  9.5 0.75 0  9.75 0.75 0  10 0.75 0  0 1 0  0.25 1 0  0.5 1 0  0.75 1 0  1 1 0  1.25 1 0  1.5 1 0  1.75 1 0  2 1 0  2.25 1 0  2.5 1 0  2.75 1 0  3 1 0  3.25 1 0  3.5 1 0  3.75 1 0  4 1 0  4.25 1 0  4.5 1 0  4.75 1 0  5 1 0  5.25 1 0  5.5 1 0  5.75 1 0  6 1 0  6.25 1 0  6.5 1 0  6.75 1 0  7 1 0  7.25 1 0  7.5 1 0  7.75 1 0  8 1 0  8.25 1 0  8.5 1 0  8.75 1 0  9 1 0  9.25 1 0  9.5 1 0  9.75 1 0  10 1 0  0 1.25 0  0.25 1.25 0  0.5 1.25 0  0.75 1.25 0  1 1.25 0  1.25 1.25 0  1.5 1.25 0  1.75 1.25 0  2 1.25 0  2.25 1.25 0  2.5 1.25 0  2.75 1.25 0  3 1.25 0  3.25 1.25 0  3.5 1.25 0  3.75 1.25 0  4 1.25 0  4.25 1.25 0  4.5 1.25 0  4.75 1.25 0  5 1.25 0  5.25 1.25 0  5.5 1.25 0  5.75 1.25 0  6 1.25 0  6.25 1.25 0  6.5 1.25 0  6.75 1.25 0  7 1.25 0  7.25 1.25 0  7.5 1.25 0  7.75 1.25 0  8 1.25 0  8.25 1.25 0  8.5 1.25 0  8.75 1.25 0  9 1.25 0  9.25 1.25 0  9.5 1.25 0  9.75 1.25 0  10 1.25 0  0 1.5 0  0.25 1.5 0  0.5 1.5 0  0.75 1.5 0  1 1.5 0  1.25 1.5 0  1.5 1.5 0  1.75 1.5 0  2 1.5 0  2.25 1.5 0  2.5 1.5 0  2.75 1.5 0  3 1.5 0  3.25 1.5 0  3.5 1.5 0  3.75 1.5 0  4 1.5 0  4.25 1.5 0  4.5 1.5 0  4.75 1.5 0  5 1.5 0  5.25 1.5 0  5.5 1.5 0  5.75 1.5 0  6 1.5 0  6.25 1.5 0  6.5 1.5 0  6.75 1.5 0  7 1.5 0  7.25 1.5 0  7.5 1.5 0  7.75 1.5 0  8 1.5 0  8.25 1.5 0  8.5 1.5 0  8.75 1.5 0  9 1.5 0  9.25 1.5 0  9.5 1.5 0  9.75 1.5 0  10 1.5 0  0 1.75 0  0.25 1.75 0  0.5 1.75 0  0.75 1.75 0  1 1.75 0  1.25 1.75 0  1.5 1.75 0  1.75 1.75 0  2 1.75 0  2.25 1.75 0  2.5 1.75 0  2.75 1.75 0  3 1.75 0  3.25 1.75 0  3.5 1.75 0  3.75 1.75 0  4 1.75 0  4.25 1.75 0  4.5 1.75 0  4.75 1.75 0  5 1.75 0  5.25 1.75 0  5.5 1.75 0  5.75 1.75 0  6 1.75 0  6.25 1.75 0  6.5 1.75 0  6.75 1.75 0  7 1.75 0  7.25 1.75 0  7.5 1.75 0  7.75 1.75 0  8 1.75 0  8.25 1.75 0  8.5 1.75 0  8.75 1.75 0  9 1.75 0  9.25 1.75 0  9.5 1.75 0  9.75 1.75 0  10 1.75 0  0 2 0  0.25 2 0  0.5 2 0  0.75 2 0  1 2 0  1.25 2 0  1.5 2 0  1.75 2 0  2 2 0  2.25 2 0  2.5 2 0  2.75 2 0  3 2 0  3.25 2 0  3.5 2 0  3.75 2 0  4 2 0  4.25 2 0  4.5 2 0  4.75 2 0  5 2 0  5.25 2 0  5.5 2 0  5.75 2 0  6 2 0  6.25 2 0  6.5 2 0  6.75 2 0  7 2 0  7.25 2 0  7.5 2 0  7.75 2 0  8 2 0  8.25 2 0  8.5 2 0  8.75 2 0  9 2 0  9.25 2 0  9.5 2 0  9.75 2 0  10 2 0  0 2.25 0  0.25 2.25 0  0.5 2.25 0  0.75 2.25 0  1 2.25 0  1.25 2.25 0  1.5 2.25 0  1.75 2.25 0  2 2.25 0  2.25 2.25 0  2.5 2.25 0  2.75 2.25 0  3 2.25 0  3.25 2.25 0  3.5 2.25 0  3.75 2.25 0  4 2.25 0  4.25 2.25 0  4.5 2.25 0  4.75 2.25 0  5 2.25 0  5.25 2.25 0  5.5 2.25 0  5.75 2.25 0  6 2.25 0  6.25 2.25 0  6.5 2.25 0  6.75 2.25 0  7 2.25 0  7.25 2.25 0  7.5 2.25 0  7.75 2.25 0  8 2.25 0  8.25 2.25 0  8.5 2.25 0  8.75 2.25 0  9 2.25 0  9.25 2.25 0  9.5 2.25 0  9.75 2.25 0  10 2.25 0  0 2.5 0  0.25 2.5 0  0.5 2.5 0  0.75 2.5 0  1 2.5 0  1.25 2.5 0  1.5 2.5 0  1.75 2.5 0  2 2.5 0  2.25 2.5 0  2.5 2.5 0  2.75 2.5 0  3 2.5 0  3.25 2.5 0  3.5 2.5 0  3.75 2.5 0  4 2.5 0  4.25 2.5 0  4.5 2.5 0  4.75 2.5 0  5 2.5 0  5.25 2.5 0  5.5 2.5 0  5.75 2.5 0  6 2.5 0  6.25 2.5 0  6.5 2.5 0  6.75 2.5 0  7 2.5 0  7.25 2.5 0  7.5 2.5 0  7.75 2.5 0  8 2.5 0  8.25 2.5 0  8.5 2.5 0  8.75 2.5 0  9 2.5 0  9.25 2.5 0  9.5 2.5 0  9.75 2.5 0  10 2.5 0  0 2.75 0  0.25 2.75 0  0.5 2.75 0  0.75 2.75 0  1 2.75 0  1.25 2.75 0  1.5 2.75 0  1.75 2.75 0  2 2.75 0  2.25 2.75 0  2.5 2.75 0  2.75 2.75 0  3 2.75 0  3.25 2.75 0  3.5 2.75 0  3.75 2.75 0  4 2.75 0  4.25 2.75 0  4.5 2.75 0  4.75 2.75 0  5 2.75 0  5.25 2.75 0  5.5 2.75 0  5.75 2.75 0  6 2.75 0  6.25 2.75 0  6.5 2.75 0  6.75 2.75 0  7 2.75 0  7.25 2.75 0  7.5 2.75 0  7.75 2.75 0  8 2.75 0  8.25 2.75 0  8.5 2.75 0  8.75 2.75 0  9 2.75 0  9.25 2.75 0  9.5 2.75 0  9.75 2.75 0  10 2.75 0  0 3 0  0.25 3 0  0.5 3 0  0.75 3 0  1 3 0  1.25 3 0  1.5 3 0  1.75 3 0  2 3 0  2.25 3 0  2.5 3 0  2.75 3 0  3 3 0  3.25 3 0  3.5 3 0  3.75 3 0  4 3 0  4.25 3 0  4.5 3 0  4.75 3 0  5 3 0  5.25 3 0  5.5 3 0  5.75 3 0  6 3 0  6.25 3 0  6.5 3 0  6.75 3 0  7 3 0  7.25 3 0  7.5 3 0  7.75 3 0  8 3 0  8.25 3 0  8.5 3 0  8.75 3 0  9 3 0  9.25 3 0  9.5 3 0  9.75 3 0  10 3 0  0 0 0.25  0.25 0 0.25  0.5 0 0.25  0.75 0 0.25  1 0 0.25  1.25 0 0.25  1.5 0 0.25  1.75 0 0.25  2 0 0.25  2.25 0 0.25  2.5 0 0.25  2.75 0 0.25  3 0 0.25  3.25 0 0.25  3.5 0 0.25  3.75 0 0.25  4 0 0.25  4.25 0 0.25  4.5 0 0.25  4.75 0 0.25  5 0 0.25  5.25 0 0.25  5.5 0 0.25  5.75 0 0.25  6 0 0.25  6.25 0 0.25  6.5 0 0.25  6.75 0 0.25  7 0 0.25  7.25 0 0.25  7.5 0 0.25  7.75 0 0.25  8 0 0.25  8.25 0 0.25  8.5 0 0.25  8.75 0 0.25  9 0 0.25  9.25 0 0.25  9.5 0 0.25  9.75 0 0.25  10 0 0.25  0 0.25 0.25  0.25 0.25 0.25  0.5 0.25 0.25  0.75 0.25 0.25  1 0.25 0.25  1.25 0.25 0.25  1.5 0.25 0.25  1.75 0.25 0.25  2 0.25 0.25  2.25 0.25 0.25  2.5 0.25 0.25  2.75 0.25 0.25  3 0.25 0.25  3.25 0.25 0.25  3.5 0.25 0.25  3.75 0.25 0.25  4 0.25 0.25  4.25 0.25 0.25  4.5 0.25 0.25  4.75 0.25 0.25  5 0.25 0.25  5.25 0.25 0.25  5.5 0.25 0.25  5.75 0.25 0.25  6 0.25 0.25  6.25 0.25 0.25  6.5 0.25 0.25  6.75 0.25 0.25  7 0.25 0.25  7.25 0.25 0.25  7.5 0.25 0.25  7.75 0.25 0.25  8 0.25 0.25  8.25 0.25 0.25  8.5 0.25 0.25  8.75 0.25 0.25  9 0.25 0.25  9.25 0.25 0.25  9.5 0.25 0.25  9.75 0.25 0.25  10 0.25 0.25  0 0.5 0.25  0.25 0.5 0.25  0.5 0.5 0.25  0.75 0.5 0.25  1 0.5 0.25  1.25 0.5 0.25  1.5 0.5 0.25  1.75 0.5 0.25  2 0.5 0.25  2.25 0.5 0.25  2.5 0.5 0.25  2.75 0.5 0.25  3 0.5 0.25  3.25 0.5 0.25  3.5 0.5 0.25  3.75 0.5 0.25  4 0.5 0.25  4.25 0.5 0.25  4.5 0.5 0.25  4.75 0.5 0.25  5 0.5 0.25  5.25 0.5 0.25  5.5 0.5 0.25  5.75 0.5 0.25  6 0.5 0.25  6.25 0.5 0.25  6.5 0.5 0.25  6.75 0.5 0.25  7 0.5 0.25  7.25 0.5 0.25  7.5 0.5 0.25  7.75 0.5 0.25  8 0.5 0.25  8.25 0.5 0.25  8.5 0.5 0.25  8.75 0.5 0.25  9 0.5 0.25  9.25 0.5 0.25  9.5 0.5 0.25  9.75 0.5 0.25  10 0.5 0.25  0 0.75 0.25  0.25 0.75 0.25  0.5 0.75 0.25  0.75 0.75 0.25  1 0.75 0.25  1.25 0.75 0.25  1.5 0.75 0.25  1.75 0.75 0.25  2 0.75 0.25  2.25 0.75 0.25  2.5 0.75 0.25  2.75 0.75 0.25  3 0.75 0.25  3.25 0.75 0.25  3.5 0.75 0.25  3.75 0.75 0.25  4 0.75 0.25  4.25 0.75 0.25  4.5 0.75 0.25  4.75 0.75 0.25  5 0.75 0.25  5.25 0.75 0.25  5.5 0.75 0.25  5.75 0.75 0.25  6 0.75 0.25  6.25 0.75 0.25  6.5 0.75 0.25  6.75 0.75 0.25  7 0.75 0.25  7.25 0.75 0.25  7.5 0.75 0.25  7.75 0.75 0.25  8 0.75 0.25  8.25 0.75 0.25  8.5 0.75 0.25  8.75 0.75 0.25  9 0.75 0.25  9.25 0.75 0.25  9.5 0.75 0.25  9.75 0.75 0.25  10 0.75 0.25  0 1 0.25  0.25 1 0.25  0.5 1 0.25  0.75 1 0.25  1 1 0.25  1.25 1 0.25  1.5 1 0.25  1.75 1 0.25  2 1 0.25  2.25 1 0.25  2.5 1 0.25  2.75 1 0.25  3 1 0.25  3.25 1 0.25  3.5 1 0.25  3.75 1 0.25  4 1 0.25  4.25 1 0.25  4.5 1 0.25  4.75 1 0.25  5 1 0.25  5.25 1 0.25  5.5 1 0.25  5.75 1 0.25  6 1 0.25  6.25 1 0.25  6.5 1 0.25  6.75 1 0.25  7 1 0.25  7.25 1 0.25  7.5 1 0.25  7.75 1 0.25  8 1 0.25  8.25 1 0.25  8.5 1 0.25  8.75 1 0.25  9 1 0.25  9.25 1 0.25  9.5 1 0.25  9.75 1 0.25  10 1 0.25  0 1.25 0.25  0.25 1.25 0.25  0.5 1.25 0.25  0.75 1.25 0.25  1 1.25 0.25  1.25 1.25 0.25  1.5 1.25 0.25  1.75 1.25 0.25  2 1.25 0.25  2.25 1.25 0.25  2.5 1.25 0.25  2.75 1.25 0.25  3 1.25 0.25  3.25 1.25 0.25  3.5 1.25 0.25  3.75 1.25 0.25  4 1.25 0.25  4.25 1.25 0.25  4.5 1.25 0.25  4.75 1.25 0.25  5 1.25 0.25  5.25 1.25 0.25  5.5 1.25 0.25  5.75 1.25 0.25  6 1.25 0.25  6.25 1.25 0.25  6.5 1.25 0.25  6.75 1.25 0.25  7 1.25 0.25  7.25 1.25 0.25  7.5 1.25 0.25  7.75 1.25 0.25  8 1.25 0.25  8.25 1.25 0.25  8.5 1.25 0.25  8.75 1.25 0.25  9 1.25 0.25  9.25 1.25 0.25  9.5 1.25 0.25  9.75 1.25 0.25  10 1.25 0.25  0 1.5 0.25  0.25 1.5 0.25  0.5 1.5 0.25  0.75 1.5 0.25  1 1.5 0.25  1.25 1.5 0.25  1.5 1.5 0.25  1.75 1.5 0.25  2 1.5 0.25  2.25 1.5 0.25  2.5 1.5 0.25  2.75 1.5 0.25  3 1.5 0.25  3.25 1.5 0.25  3.5 1.5 0.25  3.75 1.5 0.25  4 1.5 0.25  4.25 1.5 0.25  4.5 1.5 0.25  4.75 1.5 0.25  5 1.5 0.25  5.25 1.5 0.25  5.5 1.5 0.25  5.75 1.5 0.25  6 1.5 0.25  6.25 1.5 0.25  6.5 1.5 0.25  6.75 1.5 0.25  7 1.5 0.25  7.25 1.5 0.25  7.5 1.5 0.25  7.75 1.5 0.25  8 1.5 0.25  8.25 1.5 0.25  8.5 1.5 0.25  8.75 1.5 0.25  9 1.5 0.25  9.25 1.5 0.25  9.5 1.5 0.25  9.75 1.5 0.25  10 1.5 0.25  0 1.75 0.25  0.25 1.75 0.25  0.5 1.75 0.25
[...]
<PointData  Vectors="f_11"> 
<DataArray  type="Float64"  Name="f_11"  NumberOfComponents="3" format="ascii">-1.0000000000000001e-01 0.0000000000000000e+00 0.0000000000000000e+00  -9.7033969798562728e-02 3.0172069303724979e-03 -2.5672146778855996e-04  -9.4965694554719510e-02 5.1062849305485419e-03 -4.4272095281478819e-05  -9.2935613528510416e-02 7.1570569635171083e-03 -6.6915781461861725e-05  -9.0965270026670389e-02 9.1387246711267557e-03 -8.2834193604567464e-05  -8.9045617530146101e-02 1.1047438774182242e-02 -9.9075116389090432e-05  -8.7194346008629436e-02 1.2899713833465963e-02 -1.2490527167778259e-04  -8.5472323257097346e-02 1.4752058062843403e-02 -1.9205923940585897e-04  -8.3957894241568506e-02 1.6669066439506931e-02 -2.9486424936677678e-04  -8.2587189757122412e-02 1.8563357242718428e-02 -3.5654065531537653e-04  -8.1121692727181394e-02 2.0188355371513061e-02 -3.3306431283392993e-04  -7.9318405463361635e-02 2.1313868357351228e-02 -2.4083027479187267e-04  -7.7084038946539674e-02 2.1878645840322581e-02 -1.2195989909839958e-04  -7.4383576479649147e-02 2.1884559540665406e-02 -7.3667548034390731e-06  -7.1276312798381994e-02 2.1438149740950620e-02 8.0933406424269232e-05  -6.7917976786194073e-02 2.0749757247852319e-02 1.1897832997065286e-04  -6.4491136855481274e-02 2.0049862036338680e-02 8.1913490691142287e-05  -6.1062213604445824e-02 1.9438183485950458e-02 1.7220536464432425e-05  -5.7642457853618906e-02 1.8954104599588018e-02 -3.6812145206071552e-05  -5.4225899225024778e-02 1.8615084433079309e-02 -6.6904530697868824e-05  -5.0807752792588701e-02 1.8429645302583605e-02 -7.6883115298329954e-05  -4.7387836796703359e-02 1.8397565160706182e-02 -7.5498027486356508e-05  -4.3965446890630547e-02 1.8509216924717669e-02 -6.9049787036737915e-05  -4.0534146361971717e-02 1.8748796597330319e-02 -6.0134418118462810e-05  -3.7082646271063453e-02 1.9098046761666095e-02 -4.9519385901829736e-05  -3.3598230822051205e-02 1.9540235284994576e-02 -3.8230826652235371e-05  -3.0069988898441265e-02 2.0061646487740666e-02 -2.7468576209394714e-05  -2.6501978750649208e-02 2.0636876993443024e-02 -1.7201672956297458e-05  -2.3101006916639927e-02 2.1026632272788628e-02 1.0453666464061396e-05  -2.0640478131004183e-02 2.0398115188490048e-02 4.3521927317483786e-05  -1.8861479720040292e-02 1.8979393121013682e-02 4.6931711591273056e-05  -1.7177250997433880e-02 1.7335937532588847e-02 4.3942346368273873e-05  -1.5446445001514271e-02 1.5595391854141329e-02 3.7993109620907566e-05  -1.3645585253543657e-02 1.3777143944300543e-02 2.7712525196655827e-05  -1.1779528355165752e-02 1.1894038967465950e-02 1.1021841822261251e-05  -9.8732929825714657e-03 9.9700194520316761e-03 -7.4767971525522807e-06  -7.9407507542573908e-03 8.0199567991056462e-03 -2.7403245623005620e-05  -5.9935588140655983e-03 6.0601789381558285e-03 -6.6508778598186528e-05  -3.9476114426658226e-03 4.0006337005085435e-03 -4.0070718204674848e-04  -1.6491989976421730e-03 1.6317928892538717e-03 9.8499798824217772e-05  0.0000000000000000e+00 0.0000000000000000e+00 0.0000000000000000e+00  -1.0000000000000001e-01 0.0000000000000000e+00 0.0000000000000000e+00  -9.9667117078707387e-02 3.2510417798688846e-04 1.1039136875942944e-04  -9.7032828511690761e-02 3.0027494090395200e-03 -8.5988332170668227e-05  -9.4948231857011553e-02 5.1022342244531060e-03 -6.4905561516088973e-05  -9.2907432128957981e-02 7.1403936787192536e-03 -7.9668198080262421e-05  -9.0934858427196175e-02 9.1204106830631761e-03 -9.7383668365920876e-05  -8.9076239783650382e-02 1.1090094987958758e-02 -1.3431216886996937e-04  -8.7404071243278203e-02 1.3120911174851910e-02 -1.8260962350786906e-04  -8.5879382794167139e-02 1.5169611255275460e-02 -2.1896140617362964e-04  -8.4264578187377884e-02 1.6985641204664104e-02 -2.2764526437287543e-04  -8.2309956000343978e-02 1.8295009513977424e-02 -2.2417612286969519e-04  -7.9920363008894726e-02 1.8990077597870150e-02 -1.8142827628094791e-04  -7.7107342872709109e-02 1.9093875602402222e-02 -1.2008267591979902e-04  -7.3947983034875847e-02 1.8716608306836288e-02 -5.2408886558341277e-05  -7.0597102171023662e-02 1.8057659799096491e-02 -3.5630121166074776e-06  -6.7207698845673097e-02 1.7323058040765615e-02 1.7716036889993540e-05  -6.3851569755363019e-02 1.6638331980761131e-02 1.6296478335583014e-05  -6.0533558866344095e-02 1.6051062502987788e-02 -4.1854891335177915e-06  -5.7243712007596793e-02 1.5582672871686935e-02 -2.9456491429802255e-05  -5.3970264279429851e-02 1.5249109217841384e-02 -4.8361142256011536e-05  -5.0701502426301628e-02 1.5062065190809980e-02 -5.7913772544331762e-05  -4.7425859670878784e-02 1.5023109536147952e-02 -5.9753199160957469e-05  -4.4132487111746305e-02 1.5121034786848783e-02 -5.6508596431472253e-05  -4.0811218723009399e-02 1.5336520294745267e-02 -5.0194343480484548e-05  -3.7452051582853654e-02 1.5650192153521123e-02 -4.2077760425885844e-05  -3.4046039976691159e-02 1.6046266724279307e-02 -3.3253694973330168e-05  -3.0583968712107900e-02 1.6511643126276176e-02 -2.5233923426562559e-05  -2.7052973422124205e-02 1.7030725619541904e-02 -2.0127608179479131e-05  -2.3447160769980668e-02 1.7568367196076868e-02 -1.7555824501456869e-05  -1.9964523853603849e-02 1.7878377629907256e-02 1.4349046669562567e-05  -1.7395009873294114e-02 1.7126103428422388e-02 4.9748484869117003e-05  -1.5483364837202519e-02 1.5566582303039363e-02 5.2062359813054396e-05  -1.3655914462155704e-02 1.3775039477554518e-02 4.9297790393716967e-05  -1.1788810588271099e-02 1.1894540949006877e-02 4.4380202062309232e-05  -9.8826901193122575e-03 9.9682655663652850e-03 3.5991865157276266e-05  -7.9459197465888819e-03 8.0126289792230646e-03 1.6949659658621292e-05  -5.9372243392014036e-03 5.9835304021913826e-03 -6.0279264538901259e-05  -3.7197933894755576e-03 3.7381016772008884e-03 -6.1976401431208428e-05  -1.5973149909335393e-03 1.5962420033227569e-03 6.7063663497417129e-05  -2.1605835458070154e-04 2.1638072292011460e-04 1.8537280509688993e-04  0.0000000000000000e+00 0.0000000000000000e+00 0.0000000000000000e+00  -1.0000000000000001e-01 0.0000000000000000e+00 0.0000000000000000e+00  -9.9958122313562131e-02 3.3020916157380888e-05 2.1716484700776504e-05  -9.9471285472281193e-02 5.0713229219844652e-04 6.0114992697758895e-05  -9.7013618547150127e-02 2.9836051477948886e-03 -6.9099149411347603e-05  -9.4920494253946011e-02 5.0887709100064264e-03 -7.3489067475525222e-05  -9.2925529787647704e-02 7.1712357246032617e-03 -1.0043042993017016e-04  -9.1104736906393619e-02 9.3031625735663630e-03 -1.3359636879941843e-04  -8.9453076434658288e-02 1.1479451899458244e-02 -1.5352453875901553e-04  -8.7725641983515068e-02 1.3455654094009360e-02 -1.6190119939857403e-04  -8.5635902786342810e-02 1.4937807349151691e-02 -1.7999244618393026e-04  -8.3080885405438953e-02 1.5805380416770393e-02 -1.7742147069762672e-04  -8.0097339222777314e-02 1.6070728181945996e-02 -1.6663974943254285e-04  -7.6797782708837761e-02 1.5837787599588135e-02 -1.3461679596428038e-04  -7.3347242457629469e-02 1.5289585494434545e-02 -1.0260598860177169e-04  -6.9901427198794247e-02 1.4619757944321781e-02 -6.7914814917242303e-05  -6.6534155934251410e-02 1.3946737169538497e-02 -3.5985765122470022e-05  -6.3250858219836781e-02 1.3324256100943064e-02 -2.0576098531497588e-05  -6.0032605891124087e-02 1.2782849937743644e-02 -2.1919022098556937e-05  -5.6860456437409994e-02 1.2345642885384008e-02 -3.0935200368322955e-05  -5.3718482398073010e-02 1.2028779762544364e-02 -4.0196450137343205e-05  -5.0587846182791697e-02 1.1841431020792660e-02 -4.6045660809453757e-05  -4.7446022150704495e-02 1.1784414336510106e-02 -4.7806028617338123e-05  -4.4271922314122331e-02 1.1849565530631776e-02 -4.6086833031927800e-05  -4.1051103696581527e-02 1.2021943938416447e-02 -4.1718078132780115e-05  -3.7775514029819636e-02 1.2284345435210640e-02 -3.5662261646015616e-05  -3.4437920056064684e-02 1.2620300112959721e-02 -2.9249082809577467e-05  -3.1027000817406045e-02 1.3011622791263744e-02 -2.4030266062852965e-05  -2.7525561499609181e-02 1.3437022795577345e-02 -2.0735990161820564e-05  -2.3915484002450894e-02 1.3875707336425982e-02 -1.9042318788517721e-05  -2.0196041752135747e-02 1.4299565552610055e-02 -1.6635862421842164e-05  -1.6571029779255248e-02 1.4481861366600048e-02 2.3757274775176326e-05  -1.3868449875253428e-02 1.3573592127389381e-02 6.0748907391900375e-05  -1.1827071207799696e-02 1.1869195571086878e-02 6.2217433050352526e-05  -9.8906730348049705e-03 9.9632431741508796e-03 5.6970634905606352e-05  -7.9335285185433910e-03 7.9903119874289268e-03 2.6845818911034285e-05  -5.8482581791827202e-03 5.8789000257591954e-03 -2.0202665442942984e-05  -3.6271478263407843e-03 3.6293955423180157e-03 1.5442678508915847e-05  -1.6451617015459288e-03 1.6297707613000961e-03 6.3279129491513447e-05  -3.4196521464570709e-04 3.2274539260598856e-04 1.2768712960313134e-04  1.2045109463574922e-04 -1.2772433416960232e-04 3.9128442316432838e-05  0.0000000000000000e+00 0.0000000000000000e+00 0.0000000000000000e+00  -1.0000000000000001e-01 0.0000000000000000e+00 0.0000000000000000e+00  -9.9984007946072484e-02 2.6503217075452490e-06 1.8614167139959922e-06  -9.9912428570491055e-02 5.2098898821136641e-05 1.3256935714163420e-05  -9.9315289296059678e-02 6.3323223859506424e-04 3.9567224489282323e-05  -9.7021459995991127e-02 3.0015149829824800e-03 -7.7128406882862564e-05  -9.5046158332875455e-02 5.2297635877201426e-03 -1.0817159261603057e-04  -9.3269319753649396e-02 7.5283570727310185e-03 -1.1917847066351637e-04  -9.1444660995328830e-02 9.6574320823780025e-03 -1.1632647152121552e-04  -8.9251084385427462e-02 1.1291557456167832e-02 -1.3923214879514213e-04  -8.6566710606081052e-02 1.2303994101061127e-02 -1.5271934099259893e-04  -8.3425353785391163e-02 1.2719220577509781e-02 -1.7082380913644270e-04  -7.9955626094801432e-02 1.2651525583991761e-02 -1.7091675423656317e-04  -7.6343071377735994e-02 1.2270411565000961e-02 -1.6225492049279618e-04  -7.2759852798205946e-02 1.1745585783707727e-02 -1.3536467597292416e-04  -6.9290366279962934e-02 1.1179756634339243e-02 -9.5709157708775606e-05  -6.5947052879530357e-02 1.0618618311968312e-02 -6.2021461226816120e-05  -6.2716440145067359e-02 1.0089415524070840e-02 -4.3204266192114881e-05  -5.9577563067047999e-02 9.6178067814494950e-03 -3.5908870494622703e-05  -5.6506387621723823e-02 9.2284675060146093e-03 -3.5561152542508356e-05  -5.3477194598330668e-02 8.9377539970767351e-03 -3.7731199053521904e-05  -5.0462854116857504e-02 8.7511403980332775e-03 -3.9573199219096029e-05  -4.7434562007778860e-02 8.6680940231114775e-03 -3.9948239051197231e-05  -4.4365823450394762e-02 8.6856341718594878e-03 -3.8600351606845361e-05  -4.1237323901343235e-02 8.7974509724262559e-03 -3.5630742542177657e-05  -3.8037036026542521e-02 8.9909857302018989e-03 -3.1552669200765147e-05  -3.4754679251250364e-02 9.2466214861500109e-03 -2.7261736854741823e-05  -3.1376452418025426e-02 9.5411983627243808e-03 -2.3275766341596921e-05  -2.7887454102511828e-02 9.8528269384655070e-03 -1.9551701714224070e-05  -2.4275753570187401e-02 1.0165520107805534e-02 -1.6315751773774494e-05  -2.0533787374507315e-02 1.0469502627120165e-02 -1.4033288027170945e-05  -1.6671013654930563e-02 1.0750191706929573e-02 -1.0181244556133062e-05  -1.2893479549511498e-02 1.0809798484440721e-02 3.9554561828794114e-05  -1.0086231369029117e-02 9.7658925173052212e-03 6.9283436775480090e-05  -7.9355265889976580e-03 7.9309076886947705e-03 3.8150082244369117e-05  -5.7799316882323525e-03 5.7943964874456093e-03 1.4671284599674591e-05  -3.5862887175213847e-03 3.5773932734981086e-03 5.2432019533007978e-05  -1.6986002353472115e-03 1.6717288532801064e-03 7.5080828956900416e-05  -4.3040762093835461e-04 3.9989370182642495e-04 1.0316896446137524e-04  1.0518599726362840e-04 -1.2608922913340972e-04 4.4690193879645059e-05  6.2057830452992010e-05 -7.1999622022821041e-05 -9.7579544619088917e-05  0.0000000000000000e+00 0.0000000000000000e+00 0.0000000000000000e+00  -1.0000000000000001e-01 0.0000000000000000e+00 0.0000000000000000e+00  -9.9985573441948430e-02 -4.2335703047886794e-06 1.7063226292481039e-06  -9.9962204554841450e-02 -5.4649751031798162e-09 -4.3745721505010865e-06  -9.9884868356436576e-02 8.7349612805466060e-05 9.6374769434831285e-07  -9.9288810517137491e-02 8.3474054319937366e-04 -1.1684120006366462e-05  -9.7322933318842286e-02 3.3166105686226878e-03 -9.9420649331619906e-05  -9.5405582371911685e-02 5.6054900904585203e-03 -8.5842553131845905e-05  -9.3118729154884602e-02 7.3931302142531677e-03 -1.0835378802459432e-04  -9.0318678148136100e-02 8.5404132195960793e-03 -1.2743452184591156e-04  -8.7044278496519106e-02 9.0793351418187503e-03 -1.6040232793016119e-04  -8.3431231311043616e-02 9.1436167501165681e-03 -1.8121266322794515e-04  -7.9664796539677438e-02 8.9162033183928721e-03 -1.9235539859518167e-04  -7.5918918074215219e-02 8.5620755141512482e-03 -1.7833355009741559e-04  -7.2290130009675949e-02 8.1630710875605778e-03 -1.4264763951226175e-04  -6.8808622078428777e-02 7.7438845482509606e-03 -1.0488345288474188e-04  -6.5474572668303602e-02 7.3196696174434896e-03 -7.6802508213082580e-05  -6.2275080433648905e-02 6.9091733524247372e-03 -5.8001964764148462e-05  -5.9190731279091351e-02 6.5329204010056508e-03 -4.6688252712650310e-05  -5.6194180439210331e-02 6.2092737854941814e-03 -4.0633942197701148e-05  -5.3250684627971279e-02 5.9514336331591361e-03 -3.7760799084825061e-05  -5.0324358392556286e-02 5.7656453841891222e-03 -3.6366611728446825e-05  -4.7383565145085994e-02 5.6535532510155993e-03 -3.5333535445217728e-05  -4.4400824631139167e-02 5.6164528190895124e-03 -3.4091406276702503e-05  -4.1351701022456604e-02 5.6537203273076923e-03 -3.2369618666170378e-05  -3.8214869644329713e-02 5.7569946840293788e-03 -3.0022196959483870e-05  -3.4972950888643807e-02 5.9080881264977833e-03 -2.6815933330857204e-05  -3.1613223299970489e-02 6.0846459607816067e-03 -2.2548315857198379e-05  -2.8126793248961467e-02 6.2685226616951296e-03 -1.7361467459068170e-05  -2.4508395223516864e-02 6.4476147689207647e-03 -1.1826173480665832e-05  -2.0756484019002795e-02 6.6165467717034607e-03 -6.9184051518581827e-06  -1.6875855607615536e-02 6.7785491257945918e-03 -4.7218142110259999e-06  -1.2880064255444303e-02 6.9276529268161033e-03 -1.0520806702030296e-05  -8.9284199111137382e-03 6.8595729699013029e-03 2.1290633145043861e-05  -5.9079600603153285e-03 5.5565777486336308e-03 4.7135765508040138e-05  -3.5976412069194034e-03 3.5327977916200623e-03 7.1731958670464649e-05  -1.7498557247266643e-03 1.7103456595793276e-03 8.6080646270600460e-05  -5.0025220045173005e-04 4.6125238954139404e-04 9.7985362419641991e-05  8.0490773599813383e-05 -1.1250457576011427e-04 5.1398390444416807e-05  1.1172317850182637e-04 -1.3314307281016557e-04 -3.6185031610452991e-05  1.2551653016075451e-05 -2.3505520064381570e-05 -6.9881310578891697e-05  0.0000000000000000e+00 0.0000000000000000e+00 0.0000000000000000e+00  -1.0000000000000001e-01 0.0000000000000000e+00 0.0000000000000000e+00  -9.9985825032594469e-02 -4.6309609808944902e-06 3.5597360832835601e-06  -9.9976472082295084e-02 -2.7954642697054383e-06 -7.8889844288292267e-06  -9.9993858900238236e-02 5.0667970798645629e-05 -4.5263574179764651e-05  -1.0011055245065839e-01 3.7222634562945092e-04 -3.9782277733814076e-05  -9.9585036818795991e-02 1.3181039860322452e-03 4.6506890124500555e-06  -9.7234844193726633e-02 3.2465335746554107e-03 -8.5150112174183729e-05  -9.4320854200139803e-02 4.5318766907738043e-03 -1.0597091589046874e-04  -9.0916741669164997e-02 5.1870851369481084e-03 -1.4795823011114513e-04  -8.7169810584288243e-02 5.3680953270935743e-03 -1.8202819077328290e-04  -8.3272111343834845e-02 5.2672268192678817e-03 -2.0717810919042122e-04  -7.9391523930520541e-02 5.0550019142870852e-03 -2.0313642223155305e-04  -7.5613448077604908e-02 4.8140861746446299e-03 -1.7324250082148044e-04  -7.1968988286961189e-02 4.5631034000091480e-03 -1.3853688748620852e-04  -6.8474788014127722e-02 4.3020273529373928e-03 -1.0950425410350237e-04  -6.5137277526029047e-02 4.0316918973495233e-03 -8.5955867260400091e-05  -6.1949931154497276e-02 3.7601525590627862e-03 -6.7829117882584977e-05  -5.8893110540224392e-02 3.4984617376655771e-03 -5.4545582060979527e-05  -5.5936504039923618e-02 3.2553779532731577e-03 -4.5197193810450796e-05  -5.3042584338277729e-02 3.0382671945561913e-03 -3.9063583407186861e-05  -5.0172274213093206e-02 2.8555799833157010e-03 -3.5512503506155824e-05  -4.7290935460821720e-02 2.7151914903210191e-03 -3.3687968092276880e-05  -4.4368823477011307e-02 2.6213489056272255e-03 -3.2752531073405610e-05  -4.1376661618072672e-02 2.5738801296175152e-03 -3.2010051151374430e-05  -3.8285359652731575e-02 2.5676045634563521e-03 -3.0565370872215211e-05  -3.5071790777817309e-02 2.5922731855726917e-03 -2.7396996892560441e-05  -3.1723509161072742e-02 2.6345327995122218e-03 -2.1909052050966842e-05  -2.8236816764461378e-02 2.6809532377184472e-03 -1.4365012611078747e-05  -2.4611296117575891e-02 2.7221230165770170e-03 -6.1440545621857182e-06  -2.0850095158922492e-02 2.7545460853819100e-03 -8.0537812579290140e-07  -1.6955837392939998e-02 2.7771857741859217e-03 -7.7024351702593907e-06  -1.2900796054762196e-02 2.7599198271581614e-03 -2.3303451491091547e-05  -8.6721457728545295e-03 2.6748652227987363e-03 -2.5360717682783734e-05  -4.5800978730010976e-03 2.5342153141918382e-03 6.2051228333621548e-05  -1.9541356525606696e-03 1.5870573508974927e-03 1.0763446315926367e-04  -5.7813869124692598e-04 4.9105103063672769e-04 1.0242458933764412e-04  5.4881481122634204e-05 -9.9094943015995976e-05 6.2682368637587667e-05  1.4689103553730900e-04 -1.7772475518350585e-04 4.0603099354182429e-06  4.4591067017400615e-05 -6.5747008153646858e-05 -5.2238104114694199e-05  3.4184685058081829e-07 -1.1258804457227347e-05 -9.7202770788315128e-06  0.0000000000000000e+00 0.0000000000000000e+00 0.0000000000000000e+00  -1.0000000000000001e-01 0.0000000000000000e+00 0.0000000000000000e+00  -9.9986587720780645e-02 -3.6362106723871319e-06 4.1615554588304812e-06  -9.9990811871252847e-02 1.0444435978876517e-05 -3.0355017851486805e-05  -1.0016249308404528e-01 1.9329615939864332e-04 -5.9793440756278881e-05  -1.0038521335297343e-01 4.5974063593528846e-04 -2.0386441816701843e-05  -1.0008326435022076e-01 4.0173200139483387e-04 -2.9906036108483221e-06  -9.8486777848050849e-02 3.6823612698567277e-04 -1.8041105242537225e-05  -9.5037057519396534e-02 1.0486738351542218e-03 -1.3577276936564998e-04  -9.1152495556753824e-02 1.3414460766381549e-03 -1.8102310289893603e-04  -8.7126572132661728e-02 1.3582054018471629e-03 -2.1688725683342749e-04  -8.3125470959039563e-02 1.2767256135600505e-03 -2.1745839215947296e-04  -7.9223037227894977e-02 1.1702777942379746e-03 -1.9105152496326733e-04  -7.5442555194655508e-02 1.0606081910514815e-03 -1.6099563673842656e-04  -7.1796475803178356e-02 9.5452879542446149e-04 -1.3507175433368499e-04  -6.8295851134048915e-02 8.5028239086230601e-04 -1.1190649209542282e-04  -6.4949625126511215e-02 7.4077954987111783e-04 -9.1466329602624499e-05  -6.1756287334500136e-02 6.1914150216905474e-04 -7.4005617255880246e-05  -5.8697994854043797e-02 4.8157035300733556e-04 -5.9798435915656930e-05  -5.5744348491008490e-02 3.2749185675497199e-04 -4.8986500303665306e-05  -5.2860289251370568e-02 1.6035576740127875e-04 -4.1468146948455198e-05  -5.0009897512888500e-02 -1.1269510107473167e-05 -3.6979494556179462e-05  -4.7156676160300406e-02 -1.7652897728529304e-04 -3.5005924585005076e-05  -4.4264667450633205e-02 -3.2858075337433110e-04 -3.4574745341034949e-05  -4.1299990141584114e-02 -4.6689244875745801e-04 -3.4372453740620254e-05  -3.8231940669706539e-02 -5.9284237341683391e-04 -3.2963604371662230e-05  -3.5036190311123573e-02 -7.0657207673480344e-04 -2.8960734020276714e-05  -3.1697978480719445e-02 -8.0982290988101903e-04 -2.1524755132657497e-05  -2.8211268813606593e-02 -9.0958512648948813e-04 -1.1475256663768473e-05  -2.4576344898850012e-02 -1.0155247622137377e-03 -2.8756735676531829e-06  -2.0795698585159915e-02 -1.1339238804020850e-03 -5.7257475828013737e-06  -1.6844142456879187e-02 -1.2977516003569239e-03 -1.1252736186751739e-05  -1.2729699477