<?xml version="1.0"?>
<VTKFile type="UnstructuredGrid"  version="0.1"  >
<UnstructuredGrid>
<Piece  NumberOfPoints="414" NumberOfCells="1381">
<Points>
<DataArray  type="Float64"  NumberOfComponents="3"  format="ascii">0 0 0  0.25 0 0  0.25 0.25 0  0.25 0.25 0.25  0.25 0 0.25  0 0 0.25  0 0.25 0  0 0.25 0.25  0.5 0 0  0.5 0.25 0  0.5 0.25 0.25  0.5 0 0.25  0.75 0 0  0.75 0.25 0  0.75 0.25 0.25  0.75 0 0.25  1 0 0  1 0.25 0  1 0.25 0.25  1 0 0.25  1.25 0 0  1.25 0.25 0  1.25 0.25 0.25  1.25 0 0.25  1.5 0 0  1.5 0.25 0  1.5 0.25 0.25  1.5 0 0.25  1.75 0 0  1.75 0.25 0  1.75 0.25 0.25  1.75 0 0.25  2 0 0  2 0.25 0  2 0.25 0.25  2 0 0.25  2.25 0 0.25  2.25 0.25 0.25  0.25 0.5 0  0.25 0.5 0.25  0 0.5 0  0 0.5 0.25  0.5 0.5 0  0.5 0.5 0.25  0.75 0.5 0  0.75 0.5 0.25  1 0.5 0  1 0.5 0.25  1.25 0.5 0  1.25 0.5 0.25  1.5 0.5 0  1.5 0.5 0.25  1.75 0.5 0  1.75 0.5 0.25  2 0.5 0  2 0.5 0.25  2.25 0.5 0.25  0.25 0.75 0  0.25 0.75 0.25  0 0.75 0  0 0.75 0.25  0.5 0.75 0  0.5 0.75 0.25  0.75 0.75 0  0.75 0.75 0.25  1 0.75 0  1 0.75 0.25  1.25 0.75 0  1.25 0.75 0.25  1.5 0.75 0  1.5 0.75 0.25  1.75 0.75 0  1.75 0.75 0.25  2 0.75 0  2 0.75 0.25  2.25 0.75 0.25  0.25 1 0  0.25 1 0.25  0 1 0  0 1 0.25  0.5 1 0  0.5 1 0.25  0.75 1 0  0.75 1 0.25  1 1 0  1 1 0.25  1.25 1 0  1.25 1 0.25  1.5 1 0  1.5 1 0.25  1.75 1 0  1.75 1 0.25  2 1 0  2 1 0.25  2.25 1 0.25  0.25 1.25 0  0.25 1.25 0.25  0 1.25 0  0 1.25 0.25  0.5 1.25 0  0.5 1.25 0.25  0.75 1.25 0  0.75 1.25 0.25  1 1.25 0  1 1.25 0.25  1.25 1.25 0  1.25 1.25 0.25  1.5 1.25 0  1.5 1.25 0.25  1.75 1.25 0  1.75 1.25 0.25  2 1.25 0  2 1.25 0.25  2.25 1.25 0.25  2.25 1.25 0  0.25 1.5 0  0.25 1.5 0.25  0 1.5 0  0 1.5 0.25  0.5 1.5 0  0.5 1.5 0.25  0.75 1.5 0  0.75 1.5 0.25  1 1.5 0  1 1.5 0.25  1.25 1.5 0  1.25 1.5 0.25  1.5 1.5 0  1.5 1.5 0.25  1.75 1.5 0  1.75 1.5 0.25  2 1.5 0  2 1.5 0.25  2.25 1.5 0  2.25 1.5 0.25  0.25 1.75 0  0.25 1.75 0.25  0 1.75 0  0 1.75 0.25  0.5 1.75 0  0.5 1.75 0.25  0.75 1.75 0  0.75 1.75 0.25  1 1.75 0  1 1.75 0.25  1.25 1.75 0  1.25 1.75 0.25  1.5 1.75 0  1.5 1.75 0.25  1.75 1.75 0  1.75 1.75 0.25  2 1.75 0  2 1.75 0.25  2.25 1.75 0  2.25 1.75 0.25  0.25 2 0  0.25 2 0.25  0 2 0  0 2 0.25  0.5 2 0  0.5 2 0.25  0.75 2 0  0.75 2 0.25  1 2 0  1 2 0.25  1.25 2 0  1.25 2 0.25  1.5 2 0  1.5 2 0.25  1.75 2 0  1.75 2 0.25  2 2 0  2 2 0.25  2.25 2 0  2.25 2 0.25  2.5 2 0  2.5 2 0.25  0.25 2.25 0  0.25 2.25 0.25  0 2.25 0  0 2.25 0.25  0.5 2.25 0  0.5 2.25 0.25  0.75 2.25 0  0.75 2.25 0.25  1 2.25 0  1 2.25 0.25  1.25 2.25 0  1.25 2.25 0.25  1.5 2.25 0  1.5 2.25 0.25  1.75 2.25 0  1.75 2.25 0.25  2 2.25 0  2 2.25 0.25  2.25 2.25 0  2.25 2.25 0.25  2.5 2.25 0  2.5 2.25 0.25  2.75 2.25 0  2.75 2.25 0.25  0.25 2.5 0  0.25 2.5 0.25  0 2.5 0  0 2.5 0.25  0.5 2.5 0  0.5 2.5 0.25  0.75 2.5 0  0.75 2.5 0.25  1 2.5 0  1 2.5 0.25  1.25 2.5 0  1.25 2.5 0.25  1.5 2.5 0  1.5 2.5 0.25  1.75 2.5 0  1.75 2.5 0.25  2 2.5 0  2 2.5 0.25  2.25 2.5 0  2.25 2.5 0.25  2.5 2.5 0  2.5 2.5 0.25  2.75 2.5 0  2.75 2.5 0.25  0.25 2.75 0  0.25 2.75 0.25  0 2.75 0  0 2.75 0.25  0.5 2.75 0  0.5 2.75 0.25  0.75 2.75 0  0.75 2.75 0.25  1 2.75 0  1 2.75 0.25  1.25 2.75 0  1.25 2.75 0.25  1.5 2.75 0  1.5 2.75 0.25  1.75 2.75 0  1.75 2.75 0.25  2 2.75 0  2 2.75 0.25  2.25 2.75 0  2.25 2.75 0.25  2.5 2.75 0  2.5 2.75 0.25  2.75 2.75 0  2.75 2.75 0.25  0.25 3 0  0.25 3 0.25  0 3 0  0 3 0.25  0.5 3 0  0.5 3 0.25  0.75 3 0  0.75 3 0.25  1 3 0  1 3 0.25  1.25 3 0  1.25 3 0.25  1.5 3 0  1.5 3 0.25  1.75 3 0  1.75 3 0.25  2 3 0  2 3 0.25  2.25 3 0  2.25 3 0.25  2.5 3 0  2.5 3 0.25  2.75 3 0  2.75 3 0.25  0.25 0.25 0.5  0.25 0 0.5  0 0 0.5  0 0.25 0.5  0.5 0.25 0.5  0.5 0 0.5  0.75 0.25 0.5  0.75 0 0.5  1 0.25 0.5  1 0 0.5  1.25 0.25 0.5  1.25 0 0.5  1.5 0.25 0.5  1.5 0 0.5  1.75 0.25 0.5  1.75 0 0.5  2 0.25 0.5  2 0 0.5  2.25 0.25 0.5  2.25 0 0.5  0.25 0.5 0.5  0 0.5 0.5  0.5 0.5 0.5  0.75 0.5 0.5  1 0.5 0.5  1.25 0.5 0.5  1.5 0.5 0.5  1.75 0.5 0.5  2 0.5 0.5  2.25 0.5 0.5  0.25 0.75 0.5  0 0.75 0.5  0.5 0.75 0.5  0.75 0.75 0.5  1 0.75 0.5  1.25 0.75 0.5  1.5 0.75 0.5  1.75 0.75 0.5  2 0.75 0.5  2.25 0.75 0.5  0.25 1 0.5  0 1 0.5  0.5 1 0.5  0.75 1 0.5  1 1 0.5  1.25 1 0.5  1.5 1 0.5  1.75 1 0.5  2 1 0.5  2.25 1 0.5  0.25 1.25 0.5  0 1.25 0.5  0.5 1.25 0.5  0.75 1.25 0.5  1 1.25 0.5  1.25 1.25 0.5  1.5 1.25 0.5  1.75 1.25 0.5  2 1.25 0.5  2.25 1.25 0.5  2.5 1.25 0.5  0.25 1.5 0.5  0 1.5 0.5  0.5 1.5 0.5  0.75 1.5 0.5  1 1.5 0.5  1.25 1.5 0.5  1.5 1.5 0.5  1.75 1.5 0.5  2 1.5 0.5  2.25 1.5 0.5  2.5 1.5 0.5  0.25 1.75 0.5  0 1.75 0.5  0.5 1.75 0.5  0.75 1.75 0.5  1 1.75 0.5  1.25 1.75 0.5  1.5 1.75 0.5  1.75 1.75 0.5  2 1.75 0.5  2.25 1.75 0.5  2.5 1.75 0.5  0.25 2 0.5  0 2 0.5  0.5 2 0.5  0.75 2 0.5  1 2 0.5  1.25 2 0.5  1.5 2 0.5  1.75 2 0.5  2 2 0.5  2.25 2 0.5  2.5 2 0.5  0.25 2.25 0.5  0 2.25 0.5  0.5 2.25 0.5  0.75 2.25 0.5  1 2.25 0.5  1.25 2.25 0.5  1.5 2.25 0.5  1.75 2.25 0.5  2 2.25 0.5  2.25 2.25 0.5  2.5 2.25 0.5  0.25 2.5 0.5  0 2.5 0.5  0.5 2.5 0.5  0.75 2.5 0.5  1 2.5 0.5  1.25 2.5 0.5  1.5 2.5 0.5  1.75 2.5 0.5  2 2.5 0.5  2.25 2.5 0.5  2.5 2.5 0.5  2.75 2.5 0.5  0.25 2.75 0.5  0 2.75 0.5  0.5 2.75 0.5  0.75 2.75 0.5  1 2.75 0.5  1.25 2.75 0.5  1.5 2.75 0.5  1.75 2.75 0.5  2 2.75 0.5  2.25 2.75 0.5  2.5 2.75 0.5  2.75 2.75 0.5  0.25 3 0.5  0 3 0.5  0.5 3 0.5  0.75 3 0.5  1 3 0.5  1.25 3 0.5  1.5 3 0.5  1.75 3 0.5  2 3 0.5  2.25 3 0.5  2.5 3 0.5  2.75 3 0.5  </DataArray>
</Points>
<Cells>
[...]
<PointData  Vectors="f_12"> 
<DataArray  type="Float64"  Name="f_12"  NumberOfComponents="3" format="ascii">-1.0000000000000001e-01 0.0000000000000000e+00 0.0000000000000000e+00  -9.7033969798562714e-02 3.0172069303724914e-03 -2.5672146778857205e-04  -9.9667117078707401e-02 3.2510417798689589e-04 1.1039136875946066e-04  -9.9666211373087038e-02 3.2450133177836557e-04 -1.7341669523047990e-05  -9.7058711382906698e-02 2.9901432348569922e-03 -8.6261030147251191e-06  -1.0000000000000001e-01 0.0000000000000000e+00 0.0000000000000000e+00  -1.0000000000000001e-01 0.0000000000000000e+00 0.0000000000000000e+00  -1.0000000000000001e-01 0.0000000000000000e+00 0.0000000000000000e+00  -9.4965694554719565e-02 5.1062849305485341e-03 -4.4272095281460353e-05  -9.7032828511690816e-02 3.0027494090395217e-03 -8.5988332170706215e-05  -9.7045117455343846e-02 2.9829959806901563e-03 -3.8347815690079768e-05  -9.4961856655844973e-02 5.1094321836510775e-03 -2.9993822295866407e-05  -9.2935613528510430e-02 7.1570569635171707e-03 -6.6915781461825214e-05  -9.4948231857011539e-02 5.1022342244530739e-03 -6.4905561516058141e-05  -9.4943045350939004e-02 5.1028263821040597e-03 -4.7662091365251890e-05  -9.2932116153001315e-02 7.1538585797592570e-03 -4.9689900884733313e-05  -9.0965270026670417e-02 9.1387246711267679e-03 -8.2834193604557502e-05  -9.2907432128957981e-02 7.1403936787192528e-03 -7.9668198080198196e-05  -9.2909941774767801e-02 7.1442603392406628e-03 -6.4259919131390500e-05  -9.0962364296529527e-02 9.1356618198061880e-03 -6.7056430288424089e-05  -8.9045617530146115e-02 1.1047438774182289e-02 -9.9075116389081650e-05  -9.0934858427196189e-02 9.1204106830631883e-03 -9.7383668365919995e-05  -9.0943935737000117e-02 9.1295297217431955e-03 -8.3764501098548391e-05  -8.9051145724469538e-02 1.1050403654900343e-02 -8.5805839078289972e-05  -8.7194346008629464e-02 1.2899713833466001e-02 -1.2490527167779129e-04  -8.9076239783650382e-02 1.1090094987958803e-02 -1.3431216886995153e-04  -8.9077217649681698e-02 1.1088445075004531e-02 -1.0831086038087552e-04  -8.7208983085972164e-02 1.2907553780242109e-02 -1.1617534639418180e-04  -8.5472323257097402e-02 1.4752058062843429e-02 -1.9205923940593682e-04  -8.7404071243278231e-02 1.3120911174851967e-02 -1.8260962350794132e-04  -8.7360390188278070e-02 1.3070053092206137e-02 -1.4475275440103798e-04  -8.5478150321503216e-02 1.4742285428552366e-02 -1.7009530345267484e-04  -8.3957894241568520e-02 1.6669066439506993e-02 -2.9486424936689865e-04  -8.5879382794167167e-02 1.5169611255275488e-02 -2.1896140617379365e-04  -8.5784144659042452e-02 1.5058352747187732e-02 -1.8773929912148138e-04  -8.3916429992686656e-02 1.6601479520180196e-02 -2.5574955022077323e-04  -8.2495911689832446e-02 1.8441192888518771e-02 -3.1999437773566023e-04  -8.4163441867088185e-02 1.6858438911669691e-02 -2.1448299843544928e-04  -9.9958122313562173e-02 3.3020916157392936e-05 2.1716484700856552e-05  -9.9959649593156855e-02 2.8822960943758786e-05 -1.5395472128996228e-05  -1.0000000000000001e-01 0.0000000000000000e+00 0.0000000000000000e+00  -1.0000000000000001e-01 0.0000000000000000e+00 0.0000000000000000e+00  -9.9471285472281207e-02 5.0713229219843774e-04 6.0114992697839167e-05  -9.9455445675367099e-02 5.2026385974388890e-04 -3.0482587167866324e-05  -9.7013618547150154e-02 2.9836051477948639e-03 -6.9099149411338008e-05  -9.7025049674856340e-02 2.9756653208833856e-03 -4.5409380132488568e-05  -9.4920494253946025e-02 5.0887709100064160e-03 -7.3489067475449491e-05  -9.4925315036145555e-02 5.0981963252271448e-03 -5.7900061276699736e-05  -9.2925529787647690e-02 7.1712357246032912e-03 -1.0043042993019423e-04  -9.2927084973126295e-02 7.1747062347631936e-03 -7.1721950894713704e-05  -9.1104736906393591e-02 9.3031625735662954e-03 -1.3359636879943358e-04  -9.1066237450765281e-02 9.2645844056296438e-03 -9.1829594162595810e-05  -8.9453076434658274e-02 1.1479451899458275e-02 -1.5352453875904447e-04  -8.9353132963531506e-02 1.1376452981823139e-02 -1.1833000871019201e-04  -8.7725641983515096e-02 1.3455654094009359e-02 -1.6190119939871376e-04  -8.7614135829928663e-02 1.3336300658087184e-02 -1.4543750550610483e-04  -8.5574309866601320e-02 1.4860243497788680e-02 -1.5687741784056728e-04  -9.9984007946072498e-02 2.6503217075228014e-06 1.8614167140210390e-06  -9.9983937211945817e-02 1.9330314495874805e-06 -1.2739632344694527e-05  -1.0000000000000001e-01 0.0000000000000000e+00 0.0000000000000000e+00  -1.0000000000000001e-01 0.0000000000000000e+00 0.0000000000000000e+00  -9.9912428570491055e-02 5.2098898821141303e-05 1.3256935714205072e-05  -9.9914824326149135e-02 5.3262196463594118e-05 -2.5587388921483812e-05  -9.9315289296059706e-02 6.3323223859507139e-04 3.9567224489321977e-05  -9.9303211198883981e-02 6.5638599802371207e-04 -3.8643148654074912e-05  -9.7021459995991141e-02 3.0015149829824934e-03 -7.7128406882798393e-05  -9.7030763167111039e-02 2.9999801736629826e-03 -4.6533670486630121e-05  -9.5046158332875538e-02 5.2297635877201600e-03 -1.0817159261596934e-04  -9.5016954072069157e-02 5.2041585592169813e-03 -5.8479274157235278e-05  -9.3269319753649452e-02 7.5283570727310888e-03 -1.1917847066357025e-04  -9.3171869558690931e-02 7.4329749723657116e-03 -7.6827474696968841e-05  -9.1444660995328886e-02 9.6574320823780164e-03 -1.1632647152122457e-04  -9.1327031020700347e-02 9.5393784865533578e-03 -9.9885594936186033e-05  -8.9251084385427462e-02 1.1291557456167847e-02 -1.3923214879517471e-04  -8.9182552356287179e-02 1.1219843530143681e-02 -1.1713896899954827e-04  -8.6581106880632600e-02 1.2311203487663481e-02 -1.2216803019693490e-04  -9.9985573441948403e-02 -4.2335703048132256e-06 1.7063226292732218e-06  -9.9986562770704418e-02 -3.0738907216294586e-06 -1.0338306162600080e-05  -1.0000000000000001e-01 0.0000000000000000e+00 0.0000000000000000e+00  -1.0000000000000001e-01 0.0000000000000000e+00 0.0000000000000000e+00  -9.9962204554841450e-02 -5.4649751123009507e-09 -4.3745721505015574e-06  -9.9966208557274394e-02 3.3482575189652712e-06 -1.9933005069041141e-05  -9.9884868356436604e-02 8.7349612805452534e-05 9.6374769442405623e-07  -9.9889282241767546e-02 9.4535309658118824e-05 -2.7454647032196232e-05  -9.9288810517137505e-02 8.3474054319939860e-04 -1.1684120006356545e-05  -9.9257955027494835e-02 8.4047798614728911e-04 -3.5588984509456413e-05  -9.7322933318842328e-02 3.3166105686226860e-03 -9.9420649331603806e-05  -9.7239346816959352e-02 3.2291164134614445e-03 -4.8546613613931956e-05  -9.5405582371911726e-02 5.6054900904585619e-03 -8.5842553131838573e-05  -9.5285892651008314e-02 5.4886549782214291e-03 -6.9436926084278074e-05  -9.3118729154884616e-02 7.3931302142531841e-03 -1.0835378802460569e-04  -9.3045998843878153e-02 7.3228278133177860e-03 -8.7041267435449907e-05  -9.0318678148136100e-02 8.5404132195960897e-03 -1.2743452184601706e-04  -9.0331935401132671e-02 8.5541161630672425e-03 -9.8292416619102010e-05  -8.7134454235759370e-02 9.1684177282466764e-03 -1.0533505300085056e-04  -9.9985825032594455e-02 -4.6309609808854905e-06 3.5597360833091739e-06  -9.9987208920025439e-02 -2.6672256842875381e-06 -7.6364084642750253e-06  -1.0000000000000001e-01 0.0000000000000000e+00 0.0000000000000000e+00  -1.0000000000000001e-01 0.0000000000000000e+00 0.0000000000000000e+00  -9.9976472082295126e-02 -2.7954642696694127e-06 -7.8889844288234008e-06  -9.9981660459838223e-02 3.0737688887542870e-06 -1.3465920772502649e-05  -9.9993858900238236e-02 5.0667970798641014e-05 -4.5263574179797014e-05  -9.9996136822532292e-02 5.2442632264089639e-05 -1.5864439657861816e-05  -1.0011055245065845e-01 3.7222634562944691e-04 -3.9782277733748068e-05  -1.0003980528138122e-01 3.0709211849584380e-04 -2.7217143825649568e-05  -9.9585036818796033e-02 1.3181039860322640e-03 4.6506890124423331e-06  -9.9450982461358473e-02 1.2204904487374199e-03 -4.8924457291730640e-05  -9.7234844193726647e-02 3.2465335746554190e-03 -8.5150112174255165e-05  -9.7160488955123303e-02 3.1737044247331547e-03 -6.5014716181473133e-05  -9.4320854200139803e-02 4.5318766907738112e-03 -1.0597091589056783e-04  -9.4334659753164157e-02 4.5493631740529160e-03 -7.8637013338955929e-05  -9.0916741669164997e-02 5.1870851369481196e-03 -1.4795823011121682e-04  -9.1008209463575643e-02 5.2833117452829965e-03 -9.1257655349393849e-05  -8.7282476616943910e-02 5.4825839426099346e-03 -1.0564208767756062e-04  -8.7169810584288229e-02 5.3680953270936064e-03 -1.8202819077342195e-04  -9.9986587720780659e-02 -3.6362106723826037e-06 4.1615554588127934e-06  -9.9989909921322853e-02 2.5395433291564268e-07 -4.2125373086808376e-06  -1.0000000000000001e-01 0.0000000000000000e+00 0.0000000000000000e+00  -1.0000000000000001e-01 0.0000000000000000e+00 0.0000000000000000e+00  -9.9990811871252833e-02 1.0444435978948973e-05 -3.0355017851410823e-05  -9.9998689128078536e-02 1.9326075933576227e-05 -3.7521950880406142e-06  -1.0016249308404529e-01 1.9329615939868509e-04 -5.9793440756301324e-05  -1.0011267033737382e-01 1.4451569738571535e-04 -9.1385717532922750e-06  -1.0038521335297344e-01 4.5974063593531167e-04 -2.0386441816717195e-05  -1.0027363062233513e-01 3.4796297454739645e-04 -2.9763507657022244e-05  -1.0008326435022077e-01 4.0173200139482395e-04 -2.9906036108314458e-06  -1.0000335676758446e-01 3.2968314734006999e-04 -4.8687299414604699e-05  -9.8486777848050849e-02 3.6823612698565883e-04 -1.8041105242591862e-05  -9.8485886822395174e-02 4.0425848503230182e-04 -6.4656934284068634e-05  -9.5037057519396548e-02 1.0486738351542253e-03 -1.3577276936568123e-04  -9.5130981331584943e-02 1.1503051859881516e-03 -7.8286645131952852e-05  -9.1152495556753796e-02 1.3414460766381698e-03 -1.8102310289907573e-04  -9.1261094645413918e-02 1.4549166573427294e-03 -9.8216747830868665e-05  -8.7126572132661770e-02 1.3582054018471666e-03 -2.1688725683353764e-04  -8.7186955468786451e-02 1.4212618874451821e-03 -1.1123536144301397e-04  -9.9986104662870293e-02 -3.5509666082726497e-06 -1.0845675606611180e-05  -9.9992990552627295e-02 3.9657563409236986e-06 2.0037407322825392e-06  -1.0000000000000001e-01 0.0000000000000000e+00 0.0000000000000000e+00  -1.0000000000000001e-01 0.0000000000000000e+00 0.0000000000000000e+00  -1.0009420852295384e-01 1.1373410239177627e-04 -6.2991681000740995e-05  -1.0006541974993748e-01 8.5806085554001436e-05 3.0446151730714806e-06  -1.0036447328774784e-01 3.9369029254815506e-04 -2.1039237833222900e-05  -1.0025930860434919e-01 2.8971381337494290e-04 -1.4952170565040856e-05  -1.0024580095830997e-01 2.8848741954437009e-04 -6.4656552731765069e-06  -1.0016582924625225e-01 2.0984226002101995e-04 -3.2787926568803959e-05  -9.9425348100181915e-02 -4.8857576832894505e-04 -3.2624492429539679e-06  -9.9442787867851892e-02 -4.6935785078740082e-04 -5.1469119185585735e-05  -9.7877906926659444e-02 -1.7737219387819964e-03 -3.4758777426396271e-05  -9.7973971037551580e-02 -1.6655118136397133e-03 -6.7982681392118362e-05  -9.5239293007543996e-02 -2.7949471075631909e-03 -1.1153415487318171e-04  -9.5327420561225312e-02 -2.6698329888155898e-03 -9.0442282195953263e-05  -9.1219460232142294e-02 -2.8031425307790915e-03 -2.2363991606517920e-04  -9.1262014447716575e-02 -2.7529379956916953e-03 -1.0655445170856100e-04  -8.7102253821247227e-02 -2.7541468432901671e-03 -2.2564978269834087e-04  -8.7094533278444297e-02 -2.7621049095369974e-03 -1.1040804225891210e-04  -1.0002296499042150e-01 3.3639874119500708e-05 -6.6727877289255157e-05  -1.0001538658076872e-01 2.6046413629004750e-05 1.0445735631992593e-05  -1.0000000000000001e-01 0.0000000000000000e+00 0.0000000000000000e+00  -1.0000000000000001e-01 0.0000000000000000e+00 0.0000000000000000e+00  -1.0029755175333034e-01 3.1754402428176731e-04 -3.9290907489332322e-05  -1.0020611385716977e-01 2.2687620236795089e-04 4.0511057779183624e-07  -1.0027671050351844e-01 3.0783410710430692e-04 6.9456371226713962e-06  -1.0019183028199806e-01 2.2367787869188228e-04 -1.5604781561172749e-05  -9.9504973566000646e-02 -4.6044695445029982e-04 1.9625327071277135e-05  -9.9521445774868489e-02 -4.4086998944906455e-04 -3.7806363733510044e-05  -9.8069232527297004e-02 -1.8985594119149797e-03 -3.1414982512442100e-05  -9.8172605389643078e-02 -1.7903935647302911e-03 -5.5829210781823213e-05  -9.6194031914601588e-02 -3.7464772606327318e-03 -8.3654858150639981e-05  -9.6292041117678834e-02 -3.6447806494484744e-03 -7.8751007984805680e-05  -9.4014648525121605e-02 -5.6504848737673119e-03 -1.3419713939582360e-04  -9.4037549139810370e-02 -5.6175555261949303e-03 -9.8814720589039399e-05  -9.1142422233222595e-02 -6.8550678660703763e-03 -1.6780735635790847e-04  -9.1103995392109186e-02 -6.8634336737989901e-03 -1.0579509674363020e-04  -8.7181683484304051e-02 -6.8811603208932901e-03 -1.9992826977880917e-04  -8.7153049846881381e-02 -6.9044359193744511e-03 -9.8569296993796958e-05  -8.3159639366745447e-02 -6.7381901297492493e-03 -1.8212743388578136e-04  -8.3140404418629882e-02 -6.7593132297423617e-03 -8.8745832154631490e-05  -1.0018349934473030e-01 1.9236909870692736e-04 -1.0152379813708021e-04  -1.0011687371732669e-01 1.2612050152160432e-04 1.6326445050629094e-05  -1.0000000000000001e-01 0.0000000000000000e+00 0.0000000000000000e+00  -1.0000000000000001e-01 0.0000000000000000e+00 0.0000000000000000e+00  -1.0029514810480056e-01 3.1760726698373170e-04 2.1097824135556990e-05  -1.0021147538558607e-01 2.3307110761317578e-04 -2.0474760468111048e-06  -9.9574140897971952e-02 -3.9880688069886939e-04 4.9756999205915345e-05  -9.9590241787966646e-02 -3.8026010771471366e-04 -2.6458375187026029e-05  -9.8109527270181518e-02 -1.8703596801628146e-03 -1.7464411615247702e-05  -9.8218412989473231e-02 -1.7571302976450160e-03 -4.3686341270739276e-05  -9.6215280269197553e-02 -3.7835782398286818e-03 -8.1222080071719372e-05  -9.6308411295481969e-02 -3.6861529792501339e-03 -6.4574905878300089e-05  -9.4179692127707118e-02 -5.8369561949527249e-03 -1.4039950959358210e-04  -9.4182003239047213e-02 -5.8331886642251788e-03 -8.7959129083279035e-05  -9.2137512055278328e-02 -7.8537302444713908e-03 -1.2955056664747401e-04  -9.2099520743029614e-02 -7.8929009582670191e-03 -9.5175582993719865e-05  -8.9984768136266213e-02 -9.7059999414720981e-03 -1.0617203493818055e-04  -8.9950349688599690e-02 -9.7333232071672125e-03 -9.0544633188285826e-05  -8.7175908447665984e-02 -1.0801782475034844e-02 -1.3086601495676599e-04  -8.7140795513047070e-02 -1.0809348763101707e-02 -8.5237639090058622e-05  -8.3360403939035113e-02 -1.0735875080621529e-02 -1.6905794857646666e-04  -8.3342200078485848e-02 -1.0748005493644628e-02 -7.8571518003313600e-05  -7.9479265374320832e-02 -1.0451851790304703e-02 -1.5786367955737053e-04  -7.9469486967458675e-02 -1.0463824663084858e-02 -7.1574195477426485e-05  -1.0027872742581777e-01 2.8683604609894850e-04 2.9029834954044353e-05  -1.0020882831993241e-01 2.1912962686192699e-04 1.2931294784079645e-06  -1.0000000000000001e-01 0.0000000000000000e+00 0.0000000000000000e+00  -1.0000000000000001e-01 0.0000000000000000e+00 0.0000000000000000e+00  -9.9664108090694065e-02 -3.1766411522379248e-04 8.5748381578822230e-05  -9.9679261716476161e-02 -3.0177412668103224e-04 -2.3140867059255637e-05  -9.8147448361818379e-02 -1.8402569563429542e-03 -8.6786618692225648e-06  -9.8258807194063574e-02 -1.7266805581699733e-03 -3.8868046272892488e-05  -9.6193208967988886e-02 -3.8146361705224561e-03 -9.6248412944450408e-05  -9.6272113009027827e-02 -3.7326912065630690e-03 -4.8436165174876742e-05  -9.4172078745616450e-02 -5.8584004689533923e-03 -1.3939286145810552e-04  -9.4142900436687715e-02 -5.8873062989960563e-03 -7.1625582274308650e-05  -9.2170600107840173e-02 -7.8830701004730837e-03 -1.0840333209232013e-04  -9.2121176072539029e-02 -7.9336979552954018e-03 -7.7234288878853238e-05  -9.0180880076659947e-02 -9.8885799733024037e-03 -9.1575402875124039e-05  -9.0146861627309047e-02 -9.9235435476498716e-03 -7.4811951680717534e-05  -8.8210862320193179e-02 -1.1828121575177576e-02 -8.8956860507642620e-05  -8.8189251614949116e-02 -1.1850703093915772e-02 -7.4824849608372900e-05  -8.6160320680546174e-02 -1.3557108561393184e-02 -8.7757760272912775e-05  -8.6141078750410299e-02 -1.3569185893858233e-02 -7.3817192882299096e-05  -8.3473773036814011e-02 -1.4495751951005624e-02 -1.1857463556984402e-04  -8.3449065283207197e-02 -1.4494200512263725e-02 -7.1290385985930748e-05  -7.9824883045794104e-02 -1.4296929546903541e-02 -1.4988494645007392e-04  -7.9812859307734851e-02 -1.4302280113005592e-02 -6.6351473185652921e-05  -9.9783600087157420e-02 -2.0671593442917174e-04 1.4692877065608064e-04  -9.9791057631723940e-02 -1.9342403740822938e-04 -2.7885505124655358e-05  -1.0000000000000001e-01 0.0000000000000000e+00 0.0000000000000000e+00  -1.0000000000000001e-01 0.0000000000000000e+00 0.0000000000000000e+00  -9.8191835660210877e-02 -1.8118799820387730e-03 -1.1607301772681817e-05  -9.8284355646643728e-02 -1.7120677628975748e-03 -5.7632777803173166e-05  -9.6136742816175055e-02 -3.8839467059612874e-03 -1.5801401515692389e-04  -9.6180767687915350e-02 -3.8388055584715822e-03 -3.9255747438515983e-05  -9.4159914670045392e-02 -5.8795364241971074e-03 -1.2549719105464795e-04  -9.4096927425085325e-02 -5.9456542753777387e-03 -4.7943372170573681e-05  -9.2176723743170222e-02 -7.8842465437441375e-03 -6.8570326294346647e-05  -9.2122357700951882e-02 -7.9412801022487062e-03 -4.5952740569355646e-05  -9.0194069834120441e-02 -9.8883496802105106e-03 -6.5460086552813663e-05  -9.0157988220046018e-02 -9.9253008080621586e-03 -5.0665561263773437e-05  -8.8250554506583700e-02 -1.1853734961370739e-02 -7.1253160309622080e-05  -8.8228172337952104e-02 -1.1876859182957689e-02 -5.7030979428710811e-05  -8.6366391202423606e-02 -1.3750634099628607e-02 -7.5167945633087630e-05  -8.6350529568165843e-02 -1.3767207520851763e-02 -6.1883102873198882e-05  -8.4532389431580507e-02 -1.5548558861659838e-02 -7.6619886299812167e-05  -8.4520319097047256e-02 -1.5561228579264005e-02 -6.4248287394725719e-05  -8.2624328310834813e-02 -1.7119185960856067e-02 -7.9139270171336518e-05  -8.2611307222711344e-02 -1.7125169539496832e-02 -6.4507942328002207e-05  -8.0074684815595668e-02 -1.7896184394210354e-02 -1.1137513662169121e-04  -8.0054210924036417e-02 -1.7891129359833006e-02 -6.2946950283924619e-05  -9.8148535516687188e-02 -1.8584735697378247e-03 -5.5555553361745348e-05  -9.8234512467030660e-02 -1.7535584525101972e-03 -7.7547086694963147e-05  -1.0000000000000001e-01 0.0000000000000000e+00 0.0000000000000000e+00  -1.0000000000000001e-01 0.0000000000000000e+00 0.0000000000000000e+00  -9.5905321730960072e-02 -4.1444824556453588e-03 -6.3186539756875267e-04  -9.5886409047750989e-02 -4.1481105296000487e-03 -8.4592872662150000e-05  -9.4165821941444239e-02 -5.8916847389238122e-03 -6.8771168422814740e-05  -9.4093201086895756e-02 -5.9653058902010949e-03 -3.1024558123487083e-05  -9.2184489979078535e-02 -7.8856546427494654e-03 -8.1922644542849685e-06  -9.2125584576762135e-02 -7.9494009571864626e-03 6.6562172397964882e-06  -9.0202843260934959e-02 -9.8871633839168558e-03 -2.1997171849121765e-05  -9.0167304498042070e-02 -9.9256263604052195e-03 -5.9795566551795789e-06  -8.8259185000797019e-02 -1.1851729879226921e-02 -4.3511361444442184e-05  -8.8236494954442218e-02 -1.1876339187529464e-02 -2.7800607016003548e-05  -8.6378230894505151e-02 -1.3751526935808682e-02 -5.7290617390885834e-05  -8.6361420089298382e-02 -1.3768765398579422e-02 -4.2873396583736548e-05  -8.4571444233321941e-02 -1.5576423795889281e-02 -6.4364836289380854e-05  -8.4558670821307066e-02 -1.5589787004557440e-02 -5.1435699240092732e-05  -8.2836238038728124e-02 -1.7320308968167310e-02 -6.7431424244673380e-05  -8.2826499519319682e-02 -1.7330769659688355e-02 -5.5794437704557320e-05  -8.1149772915605878e-02 -1.8966152972229425e-02 -6.9300069955953279e-05  -8.1141569611327624e-02 -1.8974826398196160e-02 -5.8118203517998029e-05  -7.9376990868928368e-02 -2.0392472440127291e-02 -7.7249826428052652e-05  -7.9366184002050463e-02 -2.0396673098236125e-02 -6.0388604104646026e-05  -9.9656290538411574e-02 3.3583795480464677e-04 -1.4646383010471519e-04  -9.7092029742563604e-02 2.9648783061659309e-03 2.5866446559128891e-04  -1.0000000000000001e-01 0.0000