<?xml version="1.0"?>
<VTKFile type="UnstructuredGrid"  version="0.1"  >
<UnstructuredGrid>
<Piece  NumberOfPoints="1599" NumberOfCells="5760">
<Points>
<DataArray  type="Float64"  NumberOfComponents="3"  format="ascii">0 0 0  0.25 0 0  0.5 0 0  0.75 0 0  1 0 0  1.25 0 0  1.5 0 0  1.75 0 0  2 0 0  2.25 0 0  2.5 0 0  2.75 0 0  3 0 0  3.25 0 0  3.5 0 0  3.75 0 0  4 0 0  4.25 0 0  4.5 0 0  4.75 0 0  5 0 0  5.25 0 0  5.5 0 0  5.75 0 0  6 0 0  6.25 0 0  6.5 0 0  6.75 0 0  7 0 0  7.25 0 0  7.5 0 0  7.75 0 0  8 0 0  8.25 0 0  8.5 0 0  8.75 0 0  9 0 0  9.25 0 0  9.5 0 0  9.75 0 0  10 0 0  0 0.25 0  0.25 0.25 0  0.5 0.25 0  0.75 0.25 0  1 0.25 0  1.25 0.25 0  1.5 0.25 0  1.75 0.25 0  2 0.25 0  2.25 0.25 0  2.5 0.25 0  2.75 0.25 0  3 0.25 0  3.25 0.25 0  3.5 0.25 0  3.75 0.25 0  4 0.25 0  4.25 0.25 0  4.5 0.25 0  4.75 0.25 0  5 0.25 0  5.25 0.25 0  5.5 0.25 0  5.75 0.25 0  6 0.25 0  6.25 0.25 0  6.5 0.25 0  6.75 0.25 0  7 0.25 0  7.25 0.25 0  7.5 0.25 0  7.75 0.25 0  8 0.25 0  8.25 0.25 0  8.5 0.25 0  8.75 0.25 0  9 0.25 0  9.25 0.25 0  9.5 0.25 0  9.75 0.25 0  10 0.25 0  0 0.5 0  0.25 0.5 0  0.5 0.5 0  0.75 0.5 0  1 0.5 0  1.25 0.5 0  1.5 0.5 0  1.75 0.5 0  2 0.5 0  2.25 0.5 0  2.5 0.5 0  2.75 0.5 0  3 0.5 0  3.25 0.5 0  3.5 0.5 0  3.75 0.5 0  4 0.5 0  4.25 0.5 0  4.5 0.5 0  4.75 0.5 0  5 0.5 0  5.25 0.5 0  5.5 0.5 0  5.75 0.5 0  6 0.5 0  6.25 0.5 0  6.5 0.5 0  6.75 0.5 0  7 0.5 0  7.25 0.5 0  7.5 0.5 0  7.75 0.5 0  8 0.5 0  8.25 0.5 0  8.5 0.5 0  8.75 0.5 0  9 0.5 0  9.25 0.5 0  9.5 0.5 0  9.75 0.5 0  10 0.5 0  0 0.75 0  0.25 0.75 0  0.5 0.75 0  0.75 0.75 0  1 0.75 0  1.25 0.75 0  1.5 0.75 0  1.75 0.75 0  2 0.75 0  2.25 0.75 0  2.5 0.75 0  2.75 0.75 0  3 0.75 0  3.25 0.75 0  3.5 0.75 0  3.75 0.75 0  4 0.75 0  4.25 0.75 0  4.5 0.75 0  4.75 0.75 0  5 0.75 0  5.25 0.75 0  5.5 0.75 0  5.75 0.75 0  6 0.75 0  6.25 0.75 0  6.5 0.75 0  6.75 0.75 0  7 0.75 0  7.25 0.75 0  7.5 0.75 0  7.75 0.75 0  8 0.75 0  8.25 0.75 0  8.5 0.75 0  8.75 0.75 0  9 0.75 0  9.25 0.75 0  9.5 0.75 0  9.75 0.75 0  10 0.75 0  0 1 0  0.25 1 0  0.5 1 0  0.75 1 0  1 1 0  1.25 1 0  1.5 1 0  1.75 1 0  2 1 0  2.25 1 0  2.5 1 0  2.75 1 0  3 1 0  3.25 1 0  3.5 1 0  3.75 1 0  4 1 0  4.25 1 0  4.5 1 0  4.75 1 0  5 1 0  5.25 1 0  5.5 1 0  5.75 1 0  6 1 0  6.25 1 0  6.5 1 0  6.75 1 0  7 1 0  7.25 1 0  7.5 1 0  7.75 1 0  8 1 0  8.25 1 0  8.5 1 0  8.75 1 0  9 1 0  9.25 1 0  9.5 1 0  9.75 1 0  10 1 0  0 1.25 0  0.25 1.25 0  0.5 1.25 0  0.75 1.25 0  1 1.25 0  1.25 1.25 0  1.5 1.25 0  1.75 1.25 0  2 1.25 0  2.25 1.25 0  2.5 1.25 0  2.75 1.25 0  3 1.25 0  3.25 1.25 0  3.5 1.25 0  3.75 1.25 0  4 1.25 0  4.25 1.25 0  4.5 1.25 0  4.75 1.25 0  5 1.25 0  5.25 1.25 0  5.5 1.25 0  5.75 1.25 0  6 1.25 0  6.25 1.25 0  6.5 1.25 0  6.75 1.25 0  7 1.25 0  7.25 1.25 0  7.5 1.25 0  7.75 1.25 0  8 1.25 0  8.25 1.25 0  8.5 1.25 0  8.75 1.25 0  9 1.25 0  9.25 1.25 0  9.5 1.25 0  9.75 1.25 0  10 1.25 0  0 1.5 0  0.25 1.5 0  0.5 1.5 0  0.75 1.5 0  1 1.5 0  1.25 1.5 0  1.5 1.5 0  1.75 1.5 0  2 1.5 0  2.25 1.5 0  2.5 1.5 0  2.75 1.5 0  3 1.5 0  3.25 1.5 0  3.5 1.5 0  3.75 1.5 0  4 1.5 0  4.25 1.5 0  4.5 1.5 0  4.75 1.5 0  5 1.5 0  5.25 1.5 0  5.5 1.5 0  5.75 1.5 0  6 1.5 0  6.25 1.5 0  6.5 1.5 0  6.75 1.5 0  7 1.5 0  7.25 1.5 0  7.5 1.5 0  7.75 1.5 0  8 1.5 0  8.25 1.5 0  8.5 1.5 0  8.75 1.5 0  9 1.5 0  9.25 1.5 0  9.5 1.5 0  9.75 1.5 0  10 1.5 0  0 1.75 0  0.25 1.75 0  0.5 1.75 0  0.75 1.75 0  1 1.75 0  1.25 1.75 0  1.5 1.75 0  1.75 1.75 0  2 1.75 0  2.25 1.75 0  2.5 1.75 0  2.75 1.75 0  3 1.75 0  3.25 1.75 0  3.5 1.75 0  3.75 1.75 0  4 1.75 0  4.25 1.75 0  4.5 1.75 0  4.75 1.75 0  5 1.75 0  5.25 1.75 0  5.5 1.75 0  5.75 1.75 0  6 1.75 0  6.25 1.75 0  6.5 1.75 0  6.75 1.75 0  7 1.75 0  7.25 1.75 0  7.5 1.75 0  7.75 1.75 0  8 1.75 0  8.25 1.75 0  8.5 1.75 0  8.75 1.75 0  9 1.75 0  9.25 1.75 0  9.5 1.75 0  9.75 1.75 0  10 1.75 0  0 2 0  0.25 2 0  0.5 2 0  0.75 2 0  1 2 0  1.25 2 0  1.5 2 0  1.75 2 0  2 2 0  2.25 2 0  2.5 2 0  2.75 2 0  3 2 0  3.25 2 0  3.5 2 0  3.75 2 0  4 2 0  4.25 2 0  4.5 2 0  4.75 2 0  5 2 0  5.25 2 0  5.5 2 0  5.75 2 0  6 2 0  6.25 2 0  6.5 2 0  6.75 2 0  7 2 0  7.25 2 0  7.5 2 0  7.75 2 0  8 2 0  8.25 2 0  8.5 2 0  8.75 2 0  9 2 0  9.25 2 0  9.5 2 0  9.75 2 0  10 2 0  0 2.25 0  0.25 2.25 0  0.5 2.25 0  0.75 2.25 0  1 2.25 0  1.25 2.25 0  1.5 2.25 0  1.75 2.25 0  2 2.25 0  2.25 2.25 0  2.5 2.25 0  2.75 2.25 0  3 2.25 0  3.25 2.25 0  3.5 2.25 0  3.75 2.25 0  4 2.25 0  4.25 2.25 0  4.5 2.25 0  4.75 2.25 0  5 2.25 0  5.25 2.25 0  5.5 2.25 0  5.75 2.25 0  6 2.25 0  6.25 2.25 0  6.5 2.25 0  6.75 2.25 0  7 2.25 0  7.25 2.25 0  7.5 2.25 0  7.75 2.25 0  8 2.25 0  8.25 2.25 0  8.5 2.25 0  8.75 2.25 0  9 2.25 0  9.25 2.25 0  9.5 2.25 0  9.75 2.25 0  10 2.25 0  0 2.5 0  0.25 2.5 0  0.5 2.5 0  0.75 2.5 0  1 2.5 0  1.25 2.5 0  1.5 2.5 0  1.75 2.5 0  2 2.5 0  2.25 2.5 0  2.5 2.5 0  2.75 2.5 0  3 2.5 0  3.25 2.5 0  3.5 2.5 0  3.75 2.5 0  4 2.5 0  4.25 2.5 0  4.5 2.5 0  4.75 2.5 0  5 2.5 0  5.25 2.5 0  5.5 2.5 0  5.75 2.5 0  6 2.5 0  6.25 2.5 0  6.5 2.5 0  6.75 2.5 0  7 2.5 0  7.25 2.5 0  7.5 2.5 0  7.75 2.5 0  8 2.5 0  8.25 2.5 0  8.5 2.5 0  8.75 2.5 0  9 2.5 0  9.25 2.5 0  9.5 2.5 0  9.75 2.5 0  10 2.5 0  0 2.75 0  0.25 2.75 0  0.5 2.75 0  0.75 2.75 0  1 2.75 0  1.25 2.75 0  1.5 2.75 0  1.75 2.75 0  2 2.75 0  2.25 2.75 0  2.5 2.75 0  2.75 2.75 0  3 2.75 0  3.25 2.75 0  3.5 2.75 0  3.75 2.75 0  4 2.75 0  4.25 2.75 0  4.5 2.75 0  4.75 2.75 0  5 2.75 0  5.25 2.75 0  5.5 2.75 0  5.75 2.75 0  6 2.75 0  6.25 2.75 0  6.5 2.75 0  6.75 2.75 0  7 2.75 0  7.25 2.75 0  7.5 2.75 0  7.75 2.75 0  8 2.75 0  8.25 2.75 0  8.5 2.75 0  8.75 2.75 0  9 2.75 0  9.25 2.75 0  9.5 2.75 0  9.75 2.75 0  10 2.75 0  0 3 0  0.25 3 0  0.5 3 0  0.75 3 0  1 3 0  1.25 3 0  1.5 3 0  1.75 3 0  2 3 0  2.25 3 0  2.5 3 0  2.75 3 0  3 3 0  3.25 3 0  3.5 3 0  3.75 3 0  4 3 0  4.25 3 0  4.5 3 0  4.75 3 0  5 3 0  5.25 3 0  5.5 3 0  5.75 3 0  6 3 0  6.25 3 0  6.5 3 0  6.75 3 0  7 3 0  7.25 3 0  7.5 3 0  7.75 3 0  8 3 0  8.25 3 0  8.5 3 0  8.75 3 0  9 3 0  9.25 3 0  9.5 3 0  9.75 3 0  10 3 0  0 0 0.25  0.25 0 0.25  0.5 0 0.25  0.75 0 0.25  1 0 0.25  1.25 0 0.25  1.5 0 0.25  1.75 0 0.25  2 0 0.25  2.25 0 0.25  2.5 0 0.25  2.75 0 0.25  3 0 0.25  3.25 0 0.25  3.5 0 0.25  3.75 0 0.25  4 0 0.25  4.25 0 0.25  4.5 0 0.25  4.75 0 0.25  5 0 0.25  5.25 0 0.25  5.5 0 0.25  5.75 0 0.25  6 0 0.25  6.25 0 0.25  6.5 0 0.25  6.75 0 0.25  7 0 0.25  7.25 0 0.25  7.5 0 0.25  7.75 0 0.25  8 0 0.25  8.25 0 0.25  8.5 0 0.25  8.75 0 0.25  9 0 0.25  9.25 0 0.25  9.5 0 0.25  9.75 0 0.25  10 0 0.25  0 0.25 0.25  0.25 0.25 0.25  0.5 0.25 0.25  0.75 0.25 0.25  1 0.25 0.25  1.25 0.25 0.25  1.5 0.25 0.25  1.75 0.25 0.25  2 0.25 0.25  2.25 0.25 0.25  2.5 0.25 0.25  2.75 0.25 0.25  3 0.25 0.25  3.25 0.25 0.25  3.5 0.25 0.25  3.75 0.25 0.25  4 0.25 0.25  4.25 0.25 0.25  4.5 0.25 0.25  4.75 0.25 0.25  5 0.25 0.25  5.25 0.25 0.25  5.5 0.25 0.25  5.75 0.25 0.25  6 0.25 0.25  6.25 0.25 0.25  6.5 0.25 0.25  6.75 0.25 0.25  7 0.25 0.25  7.25 0.25 0.25  7.5 0.25 0.25  7.75 0.25 0.25  8 0.25 0.25  8.25 0.25 0.25  8.5 0.25 0.25  8.75 0.25 0.25  9 0.25 0.25  9.25 0.25 0.25  9.5 0.25 0.25  9.75 0.25 0.25  10 0.25 0.25  0 0.5 0.25  0.25 0.5 0.25  0.5 0.5 0.25  0.75 0.5 0.25  1 0.5 0.25  1.25 0.5 0.25  1.5 0.5 0.25  1.75 0.5 0.25  2 0.5 0.25  2.25 0.5 0.25  2.5 0.5 0.25  2.75 0.5 0.25  3 0.5 0.25  3.25 0.5 0.25  3.5 0.5 0.25  3.75 0.5 0.25  4 0.5 0.25  4.25 0.5 0.25  4.5 0.5 0.25  4.75 0.5 0.25  5 0.5 0.25  5.25 0.5 0.25  5.5 0.5 0.25  5.75 0.5 0.25  6 0.5 0.25  6.25 0.5 0.25  6.5 0.5 0.25  6.75 0.5 0.25  7 0.5 0.25  7.25 0.5 0.25  7.5 0.5 0.25  7.75 0.5 0.25  8 0.5 0.25  8.25 0.5 0.25  8.5 0.5 0.25  8.75 0.5 0.25  9 0.5 0.25  9.25 0.5 0.25  9.5 0.5 0.25  9.75 0.5 0.25  10 0.5 0.25  0 0.75 0.25  0.25 0.75 0.25  0.5 0.75 0.25  0.75 0.75 0.25  1 0.75 0.25  1.25 0.75 0.25  1.5 0.75 0.25  1.75 0.75 0.25  2 0.75 0.25  2.25 0.75 0.25  2.5 0.75 0.25  2.75 0.75 0.25  3 0.75 0.25  3.25 0.75 0.25  3.5 0.75 0.25  3.75 0.75 0.25  4 0.75 0.25  4.25 0.75 0.25  4.5 0.75 0.25  4.75 0.75 0.25  5 0.75 0.25  5.25 0.75 0.25  5.5 0.75 0.25  5.75 0.75 0.25  6 0.75 0.25  6.25 0.75 0.25  6.5 0.75 0.25  6.75 0.75 0.25  7 0.75 0.25  7.25 0.75 0.25  7.5 0.75 0.25  7.75 0.75 0.25  8 0.75 0.25  8.25 0.75 0.25  8.5 0.75 0.25  8.75 0.75 0.25  9 0.75 0.25  9.25 0.75 0.25  9.5 0.75 0.25  9.75 0.75 0.25  10 0.75 0.25  0 1 0.25  0.25 1 0.25  0.5 1 0.25  0.75 1 0.25  1 1 0.25  1.25 1 0.25  1.5 1 0.25  1.75 1 0.25  2 1 0.25  2.25 1 0.25  2.5 1 0.25  2.75 1 0.25  3 1 0.25  3.25 1 0.25  3.5 1 0.25  3.75 1 0.25  4 1 0.25  4.25 1 0.25  4.5 1 0.25  4.75 1 0.25  5 1 0.25  5.25 1 0.25  5.5 1 0.25  5.75 1 0.25  6 1 0.25  6.25 1 0.25  6.5 1 0.25  6.75 1 0.25  7 1 0.25  7.25 1 0.25  7.5 1 0.25  7.75 1 0.25  8 1 0.25  8.25 1 0.25  8.5 1 0.25  8.75 1 0.25  9 1 0.25  9.25 1 0.25  9.5 1 0.25  9.75 1 0.25  10 1 0.25  0 1.25 0.25  0.25 1.25 0.25  0.5 1.25 0.25  0.75 1.25 0.25  1 1.25 0.25  1.25 1.25 0.25  1.5 1.25 0.25  1.75 1.25 0.25  2 1.25 0.25  2.25 1.25 0.25  2.5 1.25 0.25  2.75 1.25 0.25  3 1.25 0.25  3.25 1.25 0.25  3.5 1.25 0.25  3.75 1.25 0.25  4 1.25 0.25  4.25 1.25 0.25  4.5 1.25 0.25  4.75 1.25 0.25  5 1.25 0.25  5.25 1.25 0.25  5.5 1.25 0.25  5.75 1.25 0.25  6 1.25 0.25  6.25 1.25 0.25  6.5 1.25 0.25  6.75 1.25 0.25  7 1.25 0.25  7.25 1.25 0.25  7.5 1.25 0.25  7.75 1.25 0.25  8 1.25 0.25  8.25 1.25 0.25  8.5 1.25 0.25  8.75 1.25 0.25  9 1.25 0.25  9.25 1.25 0.25  9.5 1.25 0.25  9.75 1.25 0.25  10 1.25 0.25  0 1.5 0.25  0.25 1.5 0.25  0.5 1.5 0.25  0.75 1.5 0.25  1 1.5 0.25  1.25 1.5 0.25  1.5 1.5 0.25  1.75 1.5 0.25  2 1.5 0.25  2.25 1.5 0.25  2.5 1.5 0.25  2.75 1.5 0.25  3 1.5 0.25  3.25 1.5 0.25  3.5 1.5 0.25  3.75 1.5 0.25  4 1.5 0.25  4.25 1.5 0.25  4.5 1.5 0.25  4.75 1.5 0.25  5 1.5 0.25  5.25 1.5 0.25  5.5 1.5 0.25  5.75 1.5 0.25  6 1.5 0.25  6.25 1.5 0.25  6.5 1.5 0.25  6.75 1.5 0.25  7 1.5 0.25  7.25 1.5 0.25  7.5 1.5 0.25  7.75 1.5 0.25  8 1.5 0.25  8.25 1.5 0.25  8.5 1.5 0.25  8.75 1.5 0.25  9 1.5 0.25  9.25 1.5 0.25  9.5 1.5 0.25  9.75 1.5 0.25  10 1.5 0.25  0 1.75 0.25  0.25 1.75 0.25  0.5 1.75 0.25
[...]
<PointData  Vectors="f_11"> 
<DataArray  type="Float64"  Name="f_11"  NumberOfComponents="3" format="ascii">-1.0000000000000001e-01 0.0000000000000000e+00 0.0000000000000000e+00  -9.7099345699221518e-02 3.0220695327041786e-03 -3.1188084908355390e-04  -9.4942651299110295e-02 5.4604913148333101e-03 -6.1735209638337897e-04  -9.2982302974850523e-02 7.9161512155197251e-03 -9.5563192819210475e-04  -9.1226510484955309e-02 1.0380576840644213e-02 -1.2767419973105281e-03  -8.9670861158975990e-02 1.2843048040624187e-02 -1.5516879515321898e-03  -8.8350517654984764e-02 1.5329735759747791e-02 -1.8227836004963247e-03  -8.7194574787888904e-02 1.7761462786356364e-02 -2.0605149383557697e-03  -8.6080055296454544e-02 2.0008764394745790e-02 -2.1947272745682059e-03  -8.4887806141745209e-02 2.1960040106221400e-02 -2.1704599272283640e-03  -8.3507178867502613e-02 2.3520120249591839e-02 -1.9886407910144344e-03  -8.1859829893493358e-02 2.4634292414987401e-02 -1.6781806350506627e-03  -7.9899961885089466e-02 2.5287330936063009e-02 -1.2785450122523938e-03  -7.7607952024609794e-02 2.5496998196974738e-02 -8.2748433858111645e-04  -7.4981796875687887e-02 2.5308568457448281e-02 -3.5386331216240898e-04  -7.2025644680283274e-02 2.4780033982857851e-02 1.2581576261339777e-04  -6.8774198246185622e-02 2.4001786346173882e-02 5.7615432936547234e-04  -6.5357541098891678e-02 2.3159033311319122e-02 9.4667328615605456e-04  -6.1849820492174058e-02 2.2367265884817064e-02 1.2526294072050935e-03  -5.8244338895052560e-02 2.1650682753914595e-02 1.5221702027279948e-03  -5.4531207150374850e-02 2.1024203336303837e-02 1.7637797391994990e-03  -5.0704238489598381e-02 2.0498396197644660e-02 1.9814567932792413e-03  -4.6761871005047272e-02 2.0078579268974241e-02 2.1768348008349534e-03  -4.2707261151405836e-02 1.9764825588874903e-02 2.3501564189946159e-03  -3.8545397190090057e-02 1.9555064360268579e-02 2.5005286418069497e-03  -3.4281527854500914e-02 1.9446895624845837e-02 2.6260800646077591e-03  -2.9920964756422471e-02 1.9438218805088073e-02 2.7242478972885780e-03  -2.5477632103391889e-02 1.9519212990986998e-02 2.7959294362319650e-03  -2.1177217342012986e-02 1.9462650777440173e-02 2.8581438054072279e-03  -1.8268322262358645e-02 1.8001130563356144e-02 2.8997354858955747e-03  -1.5970589792445759e-02 1.5955271161969653e-02 2.8733265592977958e-03  -1.3819185410448322e-02 1.3819266978818948e-02 2.7905473975293085e-03  -1.1730725602988424e-02 1.1712410533943134e-02 2.6570898999531043e-03  -9.7102430434567750e-03 9.6742811247175955e-03 2.4736193988664865e-03  -7.7815611698313211e-03 7.7327441154797418e-03 2.2403991464185853e-03  -5.9714117708979759e-03 5.9173847210566436e-03 1.9587358842936622e-03  -4.3104038670197277e-03 4.2561935188894966e-03 1.6320177676705364e-03  -2.8295158315024137e-03 2.7793989695087066e-03 1.2679030395046783e-03  -1.5626826528455826e-03 1.5291551523193480e-03 8.7628849691280119e-04  -5.7721267751525160e-04 5.7192501741764852e-04 4.6024878228470887e-04  0.0000000000000000e+00 0.0000000000000000e+00 0.0000000000000000e+00  -1.0000000000000001e-01 0.0000000000000000e+00 0.0000000000000000e+00  -9.9883040837338885e-02 2.6665769074448852e-04 -1.8298284573087776e-04  -9.7351332378233665e-02 3.2835718440307766e-03 -6.0120653666328550e-04  -9.5403129358107047e-02 5.9404247920063595e-03 -8.7220839360717623e-04  -9.3657090453752936e-02 8.6062070934459986e-03 -1.1296066621341908e-03  -9.2097726114119621e-02 1.1263958867347211e-02 -1.3615249727314670e-03  -9.0671133548411192e-02 1.3851965720255367e-02 -1.5776268664581968e-03  -8.9277722862224337e-02 1.6264214335615309e-02 -1.7527501707199605e-03  -8.7802683324370218e-02 1.8377101502107866e-02 -1.8493203274930765e-03  -8.6183351105298719e-02 2.0120968772568477e-02 -1.8413795848868869e-03  -8.4347553403078701e-02 2.1427830077860685e-02 -1.7132021324347501e-03  -8.2251863959671129e-02 2.2268408833251489e-02 -1.4810549802426027e-03  -7.9878808739362317e-02 2.2648600771918385e-02 -1.1712938543468724e-03  -7.7231606100004110e-02 2.2602974392617745e-02 -8.1216955679337286e-04  -7.4329394351456080e-02 2.2189457119166662e-02 -4.2892389333106618e-04  -7.1202437997970672e-02 2.1487106948889872e-02 -3.8927658382117916e-05  -6.7905156675838671e-02 2.0606565061756874e-02 3.3580817253535861e-04  -6.4520528076393843e-02 1.9691745696287039e-02 6.6078333752937117e-04  -6.1070863692592313e-02 1.8816590466184620e-02 9.4188317372065182e-04  -5.7541218665621979e-02 1.8003264451609144e-02 1.1962041481916280e-03  -5.3918258261851496e-02 1.7269547939746069e-02 1.4272957307181189e-03  -5.0191463320942285e-02 1.6629848375994884e-02 1.6370744154710749e-03  -4.6354170825082038e-02 1.6094270920934201e-02 1.8262644010208198e-03  -4.2404502046467826e-02 1.5667804601494504e-02 1.9946128796963798e-03  -3.8345460620513673e-02 1.5350329555412497e-02 2.1409244167519665e-03  -3.4182015644481485e-02 1.5139756725945546e-02 2.2630807180004419e-03  -2.9919638718082169e-02 1.5033920488535401e-02 2.3580635421723240e-03  -2.5564301061844118e-02 1.5031367712136142e-02 2.4224115507800754e-03  -2.1130333751835484e-02 1.5124105440203491e-02 2.4597967787762035e-03  -1.6841618640663896e-02 1.5089952532659571e-02 2.4957847921085372e-03  -1.3974372647283746e-02 1.3650798963653803e-02 2.4859096715210039e-03  -1.1737109501297447e-02 1.1662327846763411e-02 2.4062788640091689e-03  -9.6806172879992554e-03 9.6246620932872364e-03 2.2730044029961971e-03  -7.7342208367824454e-03 7.6655279242460097e-03 2.0925420647353679e-03  -5.9132101791616130e-03 5.8343118738245509e-03 1.8684881992929762e-03  -4.2509246850594637e-03 4.1681583531637196e-03 1.6054313125968510e-03  -2.7835721340716455e-03 2.7057536748892877e-03 1.3087263551591656e-03  -1.5538165984724853e-03 1.4859235116404218e-03 9.8022303413341410e-04  -6.1779948294059727e-04 5.6166447315912258e-04 5.9651598441583231e-04  -6.4862112861640054e-05 2.9944836677440411e-05 9.0504891305372362e-05  0.0000000000000000e+00 0.0000000000000000e+00 0.0000000000000000e+00  -1.0000000000000001e-01 0.0000000000000000e+00 0.0000000000000000e+00  -1.0013526244418952e-01 1.7735221962705716e-04 -2.5409361550295632e-04  -1.0017029125544787e-01 8.4745153507239637e-04 -4.7932191715493582e-04  -9.8015374540155811e-02 3.9612768318172805e-03 -8.0728037487741444e-04  -9.6244722769317392e-02 6.7985687693357813e-03 -1.0311261675570130e-03  -9.4573890126519344e-02 9.5361255503779059e-03 -1.2409086147538656e-03  -9.2919617108968053e-02 1.2097857746082529e-02 -1.4362806827376963e-03  -9.1188827804712519e-02 1.4382367655024198e-02 -1.5907789483812929e-03  -8.9318666615349318e-02 1.6317821855957603e-02 -1.6750289978698044e-03  -8.7259869583697539e-02 1.7844865108157932e-02 -1.6722690274814289e-03  -8.4975725169501776e-02 1.8918527928548177e-02 -1.5737428110689294e-03  -8.2453490784476544e-02 1.9530031421544150e-02 -1.3901283858467172e-03  -7.9700306226351408e-02 1.9701427801322904e-02 -1.1397123517995439e-03  -7.6738391932512529e-02 1.9479686939366928e-02 -8.4375139349240143e-04  -7.3601354137420846e-02 1.8931359150850650e-02 -5.2326018235787663e-04  -7.0335104265595999e-02 1.8142864814740350e-02 -1.9721974549770201e-04  -6.6992970961186143e-02 1.7218416047853752e-02 1.1473710069353609e-04  -6.3622148506683809e-02 1.6263628404710052e-02 3.9529454790774026e-04  -6.0214129229620710e-02 1.5326852921607931e-02 6.5144989937651490e-04  -5.6746960598970546e-02 1.4435054233034660e-02 8.8909926242853839e-04  -5.3203832629568105e-02 1.3608826620012714e-02 1.1089008688727907e-03  -4.9570752735122292e-02 1.2865565633965568e-02 1.3111000048159145e-03  -4.5836790266739591e-02 1.2219364539717316e-02 1.4953675664440046e-03  -4.1995044309769740e-02 1.1680116343043612e-02 1.6607504819987765e-03  -3.8043492464036738e-02 1.1252663236967681e-02 1.8056437381235107e-03  -3.3985110544265770e-02 1.0936769439428116e-02 1.9276406352173815e-03  -2.9825100730134120e-02 1.0730557193528719e-02 2.0234661570089543e-03  -2.5569955570946070e-02 1.0632884104277047e-02 2.0890735105934866e-03  -2.1228121062843715e-02 1.0644605909116641e-02 2.1199667118868646e-03  -1.6817138436443831e-02 1.0764605397917964e-02 2.1215195110542645e-03  -1.2563058488098602e-02 1.0799681415260403e-02 2.1238448822665334e-03  -9.8041668734829782e-03 9.4368342805038734e-03 2.0683667546269389e-03  -7.7139332784219210e-03 7.5894633348275835e-03 1.9475887163362797e-03  -5.8623355513106497e-03 5.7627400195380098e-03 1.7822153916700334e-03  -4.1933089943995252e-03 4.0903644430646561e-03 1.5807704163096836e-03  -2.7300655045426458e-03 2.6279507481224294e-03 1.3487606966054197e-03  -1.5083947772903754e-03 1.4138292399954275e-03 1.0885655696544413e-03  -5.6131447910615648e-04 4.8196595291027895e-04 7.9254661027357211e-04  5.8447250245305893e-05 -1.2217170017221507e-04 4.0748490392721124e-04  2.5910515012784514e-04 -3.0895384441795575e-04 -1.5298341043588188e-04  0.0000000000000000e+00 0.0000000000000000e+00 0.0000000000000000e+00  -1.0000000000000001e-01 0.0000000000000000e+00 0.0000000000000000e+00  -1.0031245378940737e-01 3.1303321607993156e-04 -3.2459749322944891e-04  -1.0071902364509971e-01 8.1216659558938674e-04 -5.6002509495774373e-04  -1.0084431539399867e-01 1.7665149596426096e-03 -7.2870869410535566e-04  -9.8858618534842901e-02 4.8204719946997113e-03 -9.8538460650720574e-04  -9.6973759611462151e-02 7.5447587859274589e-03 -1.1834272849476255e-03  -9.5009386631818835e-02 9.9884788667267861e-03 -1.3592799599140887e-03  -9.2912117257586066e-02 1.2107203597136920e-02 -1.4953107949162840e-03  -9.0634698502205721e-02 1.3842972168810046e-02 -1.5693498924527428e-03  -8.8146939854389386e-02 1.5155420689147183e-02 -1.5700364773519144e-03  -8.5438787737921337e-02 1.6023755771039185e-02 -1.4934547353654959e-03  -8.2523705082110058e-02 1.6454279721195099e-02 -1.3474252375177340e-03  -7.9428242788000064e-02 1.6478916105412335e-02 -1.1450755946628153e-03  -7.6189614822789686e-02 1.6151516633095293e-02 -9.0342430795847654e-04  -7.2852621051375605e-02 1.5543237726919191e-02 -6.3905490619588191e-04  -6.9464261777199415e-02 1.4735396056240276e-02 -3.6823681735113125e-04  -6.6069811407763246e-02 1.3814872976157837e-02 -1.0616850835903657e-04  -6.2688744261262697e-02 1.2851942615671406e-02 1.3952465807103674e-04  -5.9300332969556557e-02 1.1881138637453582e-02 3.7340554020784221e-04  -5.5878861533564701e-02 1.0932255487343749e-02 5.9558834108037063e-04  -5.2401697906209070e-02 1.0031278498567253e-02 8.0498452224371162e-04  -4.8851508875542564e-02 9.1986130426072368e-03 1.0007675215930902e-03  -4.5213964115198152e-02 8.4515358919036200e-03 1.1817934886420257e-03  -4.1477926596183511e-02 7.8040189863669389e-03 1.3464721795615462e-03  -3.7636320122513826e-02 7.2658067865004616e-03 1.4927160215198352e-03  -3.3687086591493345e-02 6.8417034347452365e-03 1.6178081653454206e-03  -2.9633924628635580e-02 6.5320840436795917e-03 1.7181330264718821e-03  -2.5484355263997761e-02 6.3374140517108964e-03 1.7890581416912467e-03  -2.1249036066199184e-02 6.2607633868059466e-03 1.8245474796345579e-03  -1.6950739541726170e-02 6.3177858391671692e-03 1.8220453536021406e-03  -1.2621909660062703e-02 6.5280784554487669e-03 1.7901274670102127e-03  -8.4790981104955910e-03 6.7335378443228741e-03 1.7659830539425933e-03  -5.9493332602506529e-03 5.5562759699321843e-03 1.6763918216640735e-03  -4.1475654639030659e-03 3.9901109619085483e-03 1.5308045924791011e-03  -2.6587012144557655e-03 2.5348907133137784e-03 1.3528303941316409e-03  -1.4298528079275110e-03 1.3143711909920856e-03 1.1481507647666067e-03  -4.7143147916415103e-04 3.6819091970533263e-04 9.1532261498090170e-04  2.0022344909337392e-04 -2.8687739950607557e-04 6.3922222238885370e-04  5.2166916369976381e-04 -5.8951971628750798e-04 2.3648185583372596e-04  3.8070893382879955e-04 -4.2841370061546277e-04 -2.3869408882066517e-04  0.0000000000000000e+00 0.0000000000000000e+00 0.0000000000000000e+00  -1.0000000000000001e-01 0.0000000000000000e+00 0.0000000000000000e+00  -1.0047479323200255e-01 4.6798678003340889e-04 -4.2396296000449821e-04  -1.0101812789849353e-01 1.0282081685120043e-03 -6.4030723624048974e-04  -1.0149785521956178e-01 1.6439576576483576e-03 -8.0296725058244685e-04  -1.0144324406270912e-01 2.5782149458649702e-03 -9.1754492840655114e-04  -9.9235866488156715e-02 5.2192133064528131e-03 -1.1536679224704274e-03  -9.6924550516742355e-02 7.5155371203338818e-03 -1.3243806045155316e-03  -9.4447232494831584e-02 9.4446106133791695e-03 -1.4472793366786577e-03  -9.1766494182976166e-02 1.0975041486933429e-02 -1.5152626338167958e-03  -8.8873354497372437e-02 1.2086688290859330e-02 -1.5216460627086280e-03  -8.5778138909034740e-02 1.2779810913423371e-02 -1.4650792923222675e-03  -8.2510283160954670e-02 1.3074452531769028e-02 -1.3515981723977014e-03  -7.9113786858563850e-02 1.3009493539802549e-02 -1.1913104835070778e-03  -7.5636742466018050e-02 1.2640061439654383e-02 -9.9637228083733942e-04  -7.2126346922865597e-02 1.2031380509582348e-02 -7.8008772195691542e-04  -6.8624942260024052e-02 1.1252947220191914e-02 -5.5537467514421015e-04  -6.5166227627427326e-02 1.0373105526915201e-02 -3.3226363846293922e-04  -6.1750252130840982e-02 9.4319320657348521e-03 -1.1356514116618138e-04  -5.8355892428096641e-02 8.4570514875479084e-03 1.0138664358349270e-04  -5.4957347068775149e-02 7.4775551202976133e-03 3.1048319347205491e-04  -5.1528553483583379e-02 6.5225098613658191e-03 5.1161653779973487e-04  -4.8046737758977130e-02 5.6175889042828012e-03 7.0306370879380455e-04  -4.4494271539965873e-02 4.7832076143547123e-03 8.8317091122415664e-04  -4.0856585736959168e-02 4.0366047561152555e-03 1.0499272764530479e-03  -3.7122363809269476e-02 3.3916513748439999e-03 1.2008490797703699e-03  -3.3284761692079744e-02 2.8583651258547787e-03 1.3327683821637757e-03  -2.9343428780358512e-02 2.4433181758629530e-03 1.4415705286036037e-03  -2.5306640158440735e-02 2.1513961129572138e-03 1.5206756717760094e-03  -2.1193599364278583e-02 1.9950351117741373e-03 1.5653568163125993e-03  -1.7034742349445610e-02 1.9979387946745999e-03 1.5719483397579276e-03  -1.2867167880384551e-02 2.1905045996190348e-03 1.5409662300482313e-03  -8.7339546038085383e-03 2.6093796295833488e-03 1.4844749165157439e-03  -4.8306782552540277e-03 3.1403823220990845e-03 1.4455944208563842e-03  -2.6948074554265741e-03 2.3006528915123481e-03 1.3336889719696983e-03  -1.3418634890658499e-03 1.1736665275999391e-03 1.1750585651562684e-03  -3.5385709568551329e-04 2.2790433767495174e-04 9.9217256107297491e-04  3.4173921382745404e-04 -4.4974563138628623e-04 7.8115587058268305e-04  7.5237196423626825e-04 -8.4142723291738065e-04 5.1820532048363907e-04  7.6149173283933305e-04 -8.3370836057590990e-04 6.7215125539647606e-05  2.9547583290535803e-04 -3.4007970838977308e-04 -2.8666910581909673e-04  0.0000000000000000e+00 0.0000000000000000e+00 0.0000000000000000e+00  -1.0000000000000001e-01 0.0000000000000000e+00 0.0000000000000000e+00  -1.0063092687361888e-01 6.2721657868691934e-04 -5.2878138172253247e-04  -1.0125695864831831e-01 1.2544867819467322e-03 -7.1570109351999146e-04  -1.0174656006368801e-01 1.7716408323840344e-03 -8.3415245609877204e-04  -1.0188674308150196e-01 2.0857907603508167e-03 -9.5969412794173390e-04  -1.0128861130978482e-01 2.6070147811904972e-03 -1.0895105402284895e-03  -9.8666814236131536e-02 4.6745264306954004e-03 -1.3123412410065826e-03  -9.5801971636096731e-02 6.4092583281299470e-03 -1.4379184454241542e-03  -9.2733873650564166e-02 7.7403468571762384e-03 -1.5065230705311463e-03  -8.9465991591210700e-02 8.6729890517150132e-03 -1.5227514318120849e-03  -8.6025518105392329e-02 9.2242920379531357e-03 -1.4872394609833253e-03  -8.2453938635874566e-02 9.4270596525530582e-03 -1.4039505360822970e-03  -7.8801429416288329e-02 9.3238061020576440e-03 -1.2801480087433221e-03  -7.5119975350183166e-02 8.9630455800654880e-03 -1.1250761502046810e-03  -7.1455335703138334e-02 8.3984619624896863e-03 -9.4879390975748698e-04  -6.7844739489940645e-02 7.6856931251492793e-03 -7.6099758914588303e-04  -6.4307916470075194e-02 6.8713416843767276e-03 -5.6769610051609276e-04  -6.0835260732050783e-02 5.9784687804466975e-03 -3.6984971087876498e-04  -5.7409466942331032e-02 5.0286631981550757e-03 -1.6995520821802180e-04  -5.4007729096503358e-02 4.0476466723045300e-03 2.9072827076113480e-05  -5.0604067787438589e-02 3.0642651312710388e-03 2.2467982618050957e-04  -4.7172484002222063e-02 2.1073784815383531e-03 4.1460971113786162e-04  -4.3690200314423430e-02 1.2025447727349386e-03 5.9676342341546799e-04  -4.0139385807963369e-02 3.7025071910953730e-04 7.6894592418614834e-04  -3.6505431364506874e-02 -3.7211085110679554e-04 9.2842780830146830e-04  -3.2778020676127145e-02 -1.0095563332668967e-03 1.0714823059376774e-03  -2.8954111025677774e-02 -1.5281240993062057e-03 1.1923924165713527e-03  -2.5042710886101143e-02 -1.9116187137462530e-03 1.2837838508053124e-03  -2.1071778755161950e-02 -2.1348882916855947e-03 1.3408513904645590e-03  -1.7078997112203256e-02 -2.1664024218567188e-03 1.3611555650334790e-03  -1.3109245138644029e-02 -1.9676073742288633e-03 1.3446494743408434e-03  -9.2116510028852905e-03 -1.4960928867136427e-03 1.2937714177016560e-03  -5.4312650263063931e-03 -7.0709926026333474e-04 1.2219048448938634e-03  -1.9146395392796358e-03 3.2442868098086293e-04 1.1765633378329821e-03  -3.2117765606708089e-04 -4.7068015170403756e-05 1.0463369861961082e-03  4.8434698937307720e-04 -6.4214370990487791e-04 8.7736069640581137e-04  9.3453277837465321e-04 -1.0460174112966849e-03 6.8250388153743159e-04  1.0880375987331198e-03 -1.1787535635576865e-03 4.2533175689481357e-04  7.5081759371662131e-04 -8.2229318664896005e-04 -5.8814389297940843e-06  2.2840831180561698e-04 -2.6963780308249930e-04 -3.0303475264175229e-04  0.0000000000000000e+00 0.0000000000000000e+00 0.0000000000000000e+00  -1.0000000000000001e-01 0.0000000000000000e+00 0.0000000000000000e+00  -1.0078222392739171e-01 7.8167459009304224e-04 -6.2201252473329904e-04  -1.0142331820477037e-01 1.4256363164275308e-03 -7.6341535506517239e-04  -1.0175029148359045e-01 1.7583305613882954e-03 -8.6346391689273879e-04  -1.0171314655472585e-01 1.7543671077562362e-03 -9.8906145108934541e-04  -1.0131138642624053e-01 1.5572153954368476e-03 -1.1315406471443404e-03  -1.0012052790354170e-01 1.5905437303872856e-03 -1.2712331996791552e-03  -9.6988916038020359e-02 3.0137004901220369e-03 -1.4556863696958175e-03  -9.3555452845188569e-02 4.1649148502789423e-03 -1.5425739702323519e-03  -8.9952728434462351e-02 4.9498243260825310e-03 -1.5742147845665291e-03  -8.6215467211708849e-02 5.4000976939025079e-03 -1.5602584952894888e-03  -8.2389648305287583e-02 5.5533014259910906e-03 -1.5044957321321297e-03  -7.8524404981987733e-02 5.4511074764093340e-03 -1.4122945030738108e-03  -7.4668097060908184e-02 5.1351673128664085e-03 -1.2904326090038179e-03  -7.0863891516242020e-02 4.6458352879592060e-03 -1.1464790230192514e-03  -6.7144575550547286e-02 4.0240015697247354e-03 -9.8686220002614238e-04  -6.3516190792591312e-02 3.2931729388259146e-03 -8.1532538909647758e-04  -5.9969183776602694e-02 2.4692739617288087e-03 -6.3356146001332023e-04  -5.6489034508901768e-02 1.5699869598647981e-03 -4.4496919881010572e-04  -5.3057869296520468e-02 6.1593078515933533e-04 -2.5275329328982421e-04  -4.9652905518160234e-02 -3.6724797996407561e-04 -5.9687099750266559e-05  -4.6248197802489573e-02 -1.3506739046663244e-03 1.3184082501003862e-04  -4.2817883003791517e-02 -2.3055636873604997e-03 3.1953696829773213e-04  -3.9339313728759609e-02 -3.2063035696871293e-03 5.0103590803863792e-04  -3.5794996107608890e-02 -4.0318207259506045e-03 6.7339878294086347e-04  -3.2172613783568726e-02 -4.7621790520583039e-03 8.3202533114523560e-04  -2.8469160266403056e-02 -5.3748106372182320e-03 9.6825222313617443e-04  -2.4699736712266791e-02 -5.8368973838903871e-03 1.0755099015340283e-03  -2.0895149124565863e-02 -6.1095346702506421e-03 1.1491273038942724e-03  -1.7100101490794772e-02 -6.1505508709759557e-03 1.1871135094500252e-03  -1.3366292090990673e-02 -5.9143001591292739e-03 1.1890743080927640e-03  -9.7454658767108550e-03 -5.3556364848347743e-03 1.1562608264873116e-03  -6.283228005450465