<?xml version="1.0"?>
<VTKFile type="UnstructuredGrid"  version="0.1"  >
<UnstructuredGrid>
<Piece  NumberOfPoints="900" NumberOfCells="3600">
<Points>
<DataArray  type="Float64"  NumberOfComponents="3"  format="ascii">0 0 0  0.04166666666666666 0 0  0.08333333333333333 0 0  0.125 0 0  0.1666666666666667 0 0  0.2083333333333333 0 0  0.25 0 0  0.2916666666666667 0 0  0.3333333333333333 0 0  0.375 0 0  0.4166666666666667 0 0  0.4583333333333333 0 0  0.5 0 0  0.5416666666666666 0 0  0.5833333333333334 0 0  0.625 0 0  0.6666666666666666 0 0  0.7083333333333334 0 0  0.75 0 0  0.7916666666666666 0 0  0.8333333333333334 0 0  0.875 0 0  0.9166666666666666 0 0  0.9583333333333334 0 0  1 0 0  0 0.2 0  0.04166666666666666 0.2 0  0.08333333333333333 0.2 0  0.125 0.2 0  0.1666666666666667 0.2 0  0.2083333333333333 0.2 0  0.25 0.2 0  0.2916666666666667 0.2 0  0.3333333333333333 0.2 0  0.375 0.2 0  0.4166666666666667 0.2 0  0.4583333333333333 0.2 0  0.5 0.2 0  0.5416666666666666 0.2 0  0.5833333333333334 0.2 0  0.625 0.2 0  0.6666666666666666 0.2 0  0.7083333333333334 0.2 0  0.75 0.2 0  0.7916666666666666 0.2 0  0.8333333333333334 0.2 0  0.875 0.2 0  0.9166666666666666 0.2 0  0.9583333333333334 0.2 0  1 0.2 0  0 0.4 0  0.04166666666666666 0.4 0  0.08333333333333333 0.4 0  0.125 0.4 0  0.1666666666666667 0.4 0  0.2083333333333333 0.4 0  0.25 0.4 0  0.2916666666666667 0.4 0  0.3333333333333333 0.4 0  0.375 0.4 0  0.4166666666666667 0.4 0  0.4583333333333333 0.4 0  0.5 0.4 0  0.5416666666666666 0.4 0  0.5833333333333334 0.4 0  0.625 0.4 0  0.6666666666666666 0.4 0  0.7083333333333334 0.4 0  0.75 0.4 0  0.7916666666666666 0.4 0  0.8333333333333334 0.4 0  0.875 0.4 0  0.9166666666666666 0.4 0  0.9583333333333334 0.4 0  1 0.4 0  0 0.6 0  0.04166666666666666 0.6 0  0.08333333333333333 0.6 0  0.125 0.6 0  0.1666666666666667 0.6 0  0.2083333333333333 0.6 0  0.25 0.6 0  0.2916666666666667 0.6 0  0.3333333333333333 0.6 0  0.375 0.6 0  0.4166666666666667 0.6 0  0.4583333333333333 0.6 0  0.5 0.6 0  0.5416666666666666 0.6 0  0.5833333333333334 0.6 0  0.625 0.6 0  0.6666666666666666 0.6 0  0.7083333333333334 0.6 0  0.75 0.6 0  0.7916666666666666 0.6 0  0.8333333333333334 0.6 0  0.875 0.6 0  0.9166666666666666 0.6 0  0.9583333333333334 0.6 0  1 0.6 0  0 0.8 0  0.04166666666666666 0.8 0  0.08333333333333333 0.8 0  0.125 0.8 0  0.1666666666666667 0.8 0  0.2083333333333333 0.8 0  0.25 0.8 0  0.2916666666666667 0.8 0  0.3333333333333333 0.8 0  0.375 0.8 0  0.4166666666666667 0.8 0  0.4583333333333333 0.8 0  0.5 0.8 0  0.5416666666666666 0.8 0  0.5833333333333334 0.8 0  0.625 0.8 0  0.6666666666666666 0.8 0  0.7083333333333334 0.8 0  0.75 0.8 0  0.7916666666666666 0.8 0  0.8333333333333334 0.8 0  0.875 0.8 0  0.9166666666666666 0.8 0  0.9583333333333334 0.8 0  1 0.8 0  0 1 0  0.04166666666666666 1 0  0.08333333333333333 1 0  0.125 1 0  0.1666666666666667 1 0  0.2083333333333333 1 0  0.25 1 0  0.2916666666666667 1 0  0.3333333333333333 1 0  0.375 1 0  0.4166666666666667 1 0  0.4583333333333333 1 0  0.5 1 0  0.5416666666666666 1 0  0.5833333333333334 1 0  0.625 1 0  0.6666666666666666 1 0  0.7083333333333334 1 0  0.75 1 0  0.7916666666666666 1 0  0.8333333333333334 1 0  0.875 1 0  0.9166666666666666 1 0  0.9583333333333334 1 0  1 1 0  0 0 0.2  0.04166666666666666 0 0.2  0.08333333333333333 0 0.2  0.125 0 0.2  0.1666666666666667 0 0.2  0.2083333333333333 0 0.2  0.25 0 0.2  0.2916666666666667 0 0.2  0.3333333333333333 0 0.2  0.375 0 0.2  0.4166666666666667 0 0.2  0.4583333333333333 0 0.2  0.5 0 0.2  0.5416666666666666 0 0.2  0.5833333333333334 0 0.2  0.625 0 0.2  0.6666666666666666 0 0.2  0.7083333333333334 0 0.2  0.75 0 0.2  0.7916666666666666 0 0.2  0.8333333333333334 0 0.2  0.875 0 0.2  0.9166666666666666 0 0.2  0.9583333333333334 0 0.2  1 0 0.2  0 0.2 0.2  0.04166666666666666 0.2 0.2  0.08333333333333333 0.2 0.2  0.125 0.2 0.2  0.1666666666666667 0.2 0.2  0.2083333333333333 0.2 0.2  0.25 0.2 0.2  0.2916666666666667 0.2 0.2  0.3333333333333333 0.2 0.2  0.375 0.2 0.2  0.4166666666666667 0.2 0.2  0.4583333333333333 0.2 0.2  0.5 0.2 0.2  0.5416666666666666 0.2 0.2  0.5833333333333334 0.2 0.2  0.625 0.2 0.2  0.6666666666666666 0.2 0.2  0.7083333333333334 0.2 0.2  0.75 0.2 0.2  0.7916666666666666 0.2 0.2  0.8333333333333334 0.2 0.2  0.875 0.2 0.2  0.9166666666666666 0.2 0.2  0.9583333333333334 0.2 0.2  1 0.2 0.2  0 0.4 0.2  0.04166666666666666 0.4 0.2  0.08333333333333333 0.4 0.2  0.125 0.4 0.2  0.1666666666666667 0.4 0.2  0.2083333333333333 0.4 0.2  0.25 0.4 0.2  0.2916666666666667 0.4 0.2  0.3333333333333333 0.4 0.2  0.375 0.4 0.2  0.4166666666666667 0.4 0.2  0.4583333333333333 0.4 0.2  0.5 0.4 0.2  0.5416666666666666 0.4 0.2  0.5833333333333334 0.4 0.2  0.625 0.4 0.2  0.6666666666666666 0.4 0.2  0.7083333333333334 0.4 0.2  0.75 0.4 0.2  0.7916666666666666 0.4 0.2  0.8333333333333334 0.4 0.2  0.875 0.4 0.2  0.9166666666666666 0.4 0.2  0.9583333333333334 0.4 0.2  1 0.4 0.2  0 0.6 0.2  0.04166666666666666 0.6 0.2  0.08333333333333333 0.6 0.2  0.125 0.6 0.2  0.1666666666666667 0.6 0.2  0.2083333333333333 0.6 0.2  0.25 0.6 0.2  0.2916666666666667 0.6 0.2  0.3333333333333333 0.6 0.2  0.375 0.6 0.2  0.4166666666666667 0.6 0.2  0.4583333333333333 0.6 0.2  0.5 0.6 0.2  0.5416666666666666 0.6 0.2  0.5833333333333334 0.6 0.2  0.625 0.6 0.2  0.6666666666666666 0.6 0.2  0.7083333333333334 0.6 0.2  0.75 0.6 0.2  0.7916666666666666 0.6 0.2  0.8333333333333334 0.6 0.2  0.875 0.6 0.2  0.9166666666666666 0.6 0.2  0.9583333333333334 0.6 0.2  1 0.6 0.2  0 0.8 0.2  0.04166666666666666 0.8 0.2  0.08333333333333333 0.8 0.2  0.125 0.8 0.2  0.1666666666666667 0.8 0.2  0.2083333333333333 0.8 0.2  0.25 0.8 0.2  0.2916666666666667 0.8 0.2  0.3333333333333333 0.8 0.2  0.375 0.8 0.2  0.4166666666666667 0.8 0.2  0.4583333333333333 0.8 0.2  0.5 0.8 0.2  0.5416666666666666 0.8 0.2  0.5833333333333334 0.8 0.2  0.625 0.8 0.2  0.6666666666666666 0.8 0.2  0.7083333333333334 0.8 0.2  0.75 0.8 0.2  0.7916666666666666 0.8 0.2  0.8333333333333334 0.8 0.2  0.875 0.8 0.2  0.9166666666666666 0.8 0.2  0.9583333333333334 0.8 0.2  1 0.8 0.2  0 1 0.2  0.04166666666666666 1 0.2  0.08333333333333333 1 0.2  0.125 1 0.2  0.1666666666666667 1 0.2  0.2083333333333333 1 0.2  0.25 1 0.2  0.2916666666666667 1 0.2  0.3333333333333333 1 0.2  0.375 1 0.2  0.4166666666666667 1 0.2  0.4583333333333333 1 0.2  0.5 1 0.2  0.5416666666666666 1 0.2  0.5833333333333334 1 0.2  0.625 1 0.2  0.6666666666666666 1 0.2  0.7083333333333334 1 0.2  0.75 1 0.2  0.7916666666666666 1 0.2  0.8333333333333334 1 0.2  0.875 1 0.2  0.9166666666666666 1 0.2  0.9583333333333334 1 0.2  1 1 0.2  0 0 0.4  0.04166666666666666 0 0.4  0.08333333333333333 0 0.4  0.125 0 0.4  0.1666666666666667 0 0.4  0.2083333333333333 0 0.4  0.25 0 0.4  0.2916666666666667 0 0.4  0.3333333333333333 0 0.4  0.375 0 0.4  0.4166666666666667 0 0.4  0.4583333333333333 0 0.4  0.5 0 0.4  0.5416666666666666 0 0.4  0.5833333333333334 0 0.4  0.625 0 0.4  0.6666666666666666 0 0.4  0.7083333333333334 0 0.4  0.75 0 0.4  0.7916666666666666 0 0.4  0.8333333333333334 0 0.4  0.875 0 0.4  0.9166666666666666 0 0.4  0.9583333333333334 0 0.4  1 0 0.4  0 0.2 0.4  0.04166666666666666 0.2 0.4  0.08333333333333333 0.2 0.4  0.125 0.2 0.4  0.1666666666666667 0.2 0.4  0.2083333333333333 0.2 0.4  0.25 0.2 0.4  0.2916666666666667 0.2 0.4  0.3333333333333333 0.2 0.4  0.375 0.2 0.4  0.4166666666666667 0.2 0.4  0.4583333333333333 0.2 0.4  0.5 0.2 0.4  0.5416666666666666 0.2 0.4  0.5833333333333334 0.2 0.4  0.625 0.2 0.4  0.6666666666666666 0.2 0.4  0.7083333333333334 0.2 0.4  0.75 0.2 0.4  0.7916666666666666 0.2 0.4  0.8333333333333334 0.2 0.4  0.875 0.2 0.4  0.9166666666666666 0.2 0.4  0.9583333333333334 0.2 0.4  1 0.2 0.4  0 0.4 0.4  0.04166666666666666 0.4 0.4  0.08333333333333333 0.4 0.4  0.125 0.4 0.4  0.1666666666666667 0.4 0.4  0.2083333333333333 0.4 0.4  0.25 0.4 0.4  0.2916666666666667 0.4 0.4  0.3333333333333333 0.4 0.4  0.375 0.4 0.4  0.4166666666666667 0.4 0.4  0.4583333333333333 0.4 0.4  0.5 0.4 0.4  0.5416666666666666 0.4 0.4  0.5833333333333334 0.4 0.4  0.625 0.4 0.4  0.6666666666666666 0.4 0.4  0.7083333333333334 0.4 0.4  0.75 0.4 0.4  0.7916666666666666 0.4 0.4  0.8333333333333334 0.4 0.4  0.875 0.4 0.4  0.9166666666666666 0.4 0.4  0.9583333333333334 0.4 0.4  1 0.4 0.4  0 0.6 0.4  0.04166666666666666 0.6 0.4  0.08333333333333333 0.6 0.4  0.125 0.6 0.4  0.1666666666666667 0.6 0.4  0.2083333333333333 0.6 0.4  0.25 0.6 0.4  0.2916666666666667 0.6 0.4  0.3333333333333333 0.6 0.4  0.375 0.6 0.4  0.4166666666666667 0.6 0.4  0.4583333333333333 0.6 0.4  0.5 0.6 0.4  0.5416666666666666 0.6 0.4  0.5833333333333334 0.6 0.4  0.625 0.6 0.4  0.6666666666666666 0.6 0.4  0.7083333333333334 0.6 0.4  0.75 0.6 0.4  0.7916666666666666 0.6 0.4  0.8333333333333334 0.6 0.4  0.875 0.6 0.4  0.9166666666666666 0.6 0.4  0.9583333333333334 0.6 0.4  1 0.6 0.4  0 0.8 0.4  0.04166666666666666 0.8 0.4  0.08333333333333333 0.8 0.4  0.125 0.8 0.4  0.1666666666666667 0.8 0.4  0.2083333333333333 0.8 0.4  0.25 0.8 0.4  0.2916666666666667 0.8 0.4  0.3333333333333333 0.8 0.4  0.375 0.8 0.4  0.4166666666666667 0.8 0.4  0.4583333333333333 0.8 0.4  0.5 0.8 0.4  0.5416666666666666 0.8 0.4  0.5833333333333334 0.8 0.4  0.625 0.8 0.4  0.6666666666666666 0.8 0.4  0.7083333333333334 0.8 0.4  0.75 0.8 0.4  0.7916666666666666 0.8 0.4  0.8333333333333334 0.8 0.4  0.875 0.8 0.4  0.9166666666666666 0.8 0.4  0.9583333333333334 0.8 0.4  1 0.8 0.4  0 1 0.4  0.04166666666666666 1 0.4  0.08333333333333333 1 0.4  0.125 1 0.4  0.1666666666666667 1 0.4  0.2083333333333333 1 0.4  0.25 1 0.4  0.2916666666666667 1 0.4  0.3333333333333333 1 0.4  0.375 1 0.4  0.4166666666666667 1 0.4  0.4583333333333333 1 0.4  0.5 1 0.4  0.5416666666666666 1 0.4  0.5833333333333334 1 0.4  0.625 1 0.4  0.6666666666666666 1 0.4  0.7083333333333334 1 0.4  0.75 1 0.4  0.7916666666666666 1 0.4  0.8333333333333334 1 0.4  0.875 1 0.4  0.9166666666666666 1 0.4  0.9583333333333334 1 0.4  1 1 0.4  0 0 0.6  0.04166666666666666 0 0.6  0.08333333333333333 0 0.6  0.12
[...]
<PointData  Vectors="f_5"> 
<DataArray  type="Float64"  Name="f_5"  NumberOfComponents="3" format="ascii">-4.5000000000000001e-01 8.9098726125421787e-02 8.9098726125421829e-02  -4.2770406207372857e-01 8.9359419057178840e-02 8.9359419057178910e-02  -4.0536409267504547e-01 8.9552707325028499e-02 8.9552707325028583e-02  -3.8300021251313443e-01 8.9721522146874136e-02 8.9721522146874205e-02  -3.6061900239358935e-01 8.9879059764916239e-02 8.9879059764916308e-02  -3.3822403096444131e-01 9.0031812295471345e-02 9.0031812295471428e-02  -3.1581855771385020e-01 9.0182023753457449e-02 9.0182023753457533e-02  -2.9340705267189859e-01 9.0327534293029921e-02 9.0327534293029990e-02  -2.7099669621589861e-01 9.0460859281917425e-02 9.0460859281917466e-02  -2.4859928983707882e-01 9.0567463364569167e-02 9.0567463364569195e-02  -2.2623393966044125e-01 9.0622898156710679e-02 9.0622898156710693e-02  -2.0393095031366379e-01 9.0588331666758157e-02 9.0588331666758171e-02  -1.8173750150685181e-01 9.0403847194927972e-02 9.0403847194927972e-02  -1.5972582885530898e-01 8.9978773630190995e-02 8.9978773630191022e-02  -1.3800468757111672e-01 8.9178407586253908e-02 8.9178407586253922e-02  -1.1673454394436324e-01 8.7807263309679737e-02 8.7807263309679751e-02  -9.6145462500531909e-02 8.5591499150169781e-02 8.5591499150169795e-02  -7.6552429099513514e-02 8.2169455297500485e-02 8.2169455297500499e-02  -5.8353674912819176e-02 7.7111485552126602e-02 7.7111485552126588e-02  -4.1984889873226253e-02 7.0005751342042025e-02 7.0005751342042025e-02  -2.7817561972155173e-02 6.0668362914824137e-02 6.0668362914824116e-02  -1.6101465208974361e-02 4.9047555980082654e-02 4.9047555980082647e-02  -7.2572999770491361e-03 3.4979253399476100e-02 3.4979253399476107e-02  -1.7617272094677271e-03 1.8490666107230835e-02 1.8490666107230869e-02  0.0000000000000000e+00 0.0000000000000000e+00 0.0000000000000000e+00  -4.5000000000000001e-01 5.1182088219153696e-02 8.8867661569314624e-02  -4.2790287548590805e-01 5.1296714939865630e-02 8.9270089186960930e-02  -4.0574613746640176e-01 5.1437495175831849e-02 8.9500881493684403e-02  -3.8355909751143824e-01 5.1573112587023774e-02 8.9677629124412253e-02  -3.6135167924475364e-01 5.1705627867810876e-02 8.9834131414115545e-02  -3.3912909811644532e-01 5.1839481164439143e-02 8.9984305310737617e-02  -3.1689538800469308e-01 5.1977557977536677e-02 9.0133734177962915e-02  -2.9465510242324788e-01 5.2120362314074874e-02 9.0282480670573553e-02  -2.7241478440998435e-01 5.2265500554883583e-02 9.0425493010971733e-02  -2.5018471075162357e-01 5.2406874515881510e-02 9.0551718760518138e-02  -2.2798127217974562e-01 5.2533284382779759e-02 9.0642027768496627e-02  -2.0583040255134821e-01 5.2626141988047485e-02 9.0665679221663714e-02  -1.8377259825818928e-01 5.2655901331548072e-02 9.0574809044902171e-02  -1.6187023749796126e-01 5.2576683201168262e-02 9.0296175525152830e-02  -1.4021805122246336e-01 5.2318466161486790e-02 8.9719236748354511e-02  -1.1895752254580672e-01 5.1776279450728740e-02 8.8679792971427363e-02  -9.8295202799787679e-02 5.0796388277987534e-02 8.6939592222403161e-02  -7.8522322069603648e-02 4.9161139942428565e-02 8.4166015934476340e-02  -6.0026715822189769e-02 4.6578147087372082e-02 7.9924889602898994e-02  -4.3275964298238746e-02 4.2691140483908138e-02 7.3719954971604884e-02  -2.8741117202115887e-02 3.7189081872859464e-02 6.5177164576569691e-02  -1.6782245835036895e-02 2.9873482611129567e-02 5.3980054390636856e-02  -7.7067540027658714e-03 2.1011964730642065e-02 3.9731746564807442e-02  -1.9752906518326683e-03 1.0867309550228415e-02 2.1876994577916479e-02  0.0000000000000000e+00 0.0000000000000000e+00 0.0000000000000000e+00  -4.5000000000000001e-01 1.3332701939289470e-02 8.8584812335868166e-02  -4.2807837511073699e-01 1.3440555150645505e-02 8.8970846430963174e-02  -4.0611751526759293e-01 1.3523700912361495e-02 8.9236196982823479e-02  -3.8412606677687766e-01 1.3610502019874288e-02 8.9430326167606169e-02  -3.6211293081138218e-01 1.3704249893774981e-02 8.9592992134862409e-02  -3.4008424974335366e-01 1.3808086780920180e-02 8.9745102872044041e-02  -3.1804480002324526e-01 1.3924667760167708e-02 8.9896329478348330e-02  -2.9599934609767237e-01 1.4056016504353772e-02 9.0049336843260372e-02  -2.7395393825735143e-01 1.4203648469093829e-02 9.0201388643490019e-02  -2.5191741636643489e-01 1.4368680524972177e-02 9.0344330834508199e-02  -2.2990340649488072e-01 1.4551844030027598e-02 9.0463302285602204e-02  -2.0793316398940320e-01 1.4753339497403810e-02 9.0534094199294507e-02  -1.8603973849722732e-01 1.4972423237876165e-02 9.0518753533421967e-02  -1.6427410938756368e-01 1.5206515818077969e-02 9.0358699927424443e-02  -1.4271413617275755e-01 1.5449440055292312e-02 8.9964274649421083e-02  -1.2147728723548164e-01 1.5688064893072437e-02 8.9199358444519233e-02  -1.0073787045970684e-01 1.5896008480702717e-02 8.7859863606559563e-02  -8.0748249595189114e-02 1.6021840235575808e-02 8.5646541770693946e-02  -6.1860247714280940e-02 1.5966786448997666e-02 8.2137600594655080e-02  -4.4539094121789718e-02 1.5538669074211650e-02 7.6774186838562269e-02  -2.9344284147625535e-02 1.4415052638436511e-02 6.8980107529311899e-02  -1.6853972894754907e-02 1.2135612108665893e-02 5.8083960984802764e-02  -7.6699174224821700e-03 8.3300415337727706e-03 4.3234156083380881e-02  -1.9635289725262600e-03 4.0231831873165117e-03 2.4015147703720711e-02  0.0000000000000000e+00 0.0000000000000000e+00 0.0000000000000000e+00  -4.5000000000000001e-01 -2.4153676661141169e-02 8.7982170821287592e-02  -4.2836914716635527e-01 -2.4104512459530443e-02 8.8382099294510491e-02  -4.0668250773784359e-01 -2.4079417346487570e-02 8.8624160036036584e-02  -3.8496764085712870e-01 -2.4049197646367360e-02 8.8807101074556860e-02  -3.6323522500985372e-01 -2.4000487612206418e-02 8.8961895412662959e-02  -3.4149273071189667e-01 -2.3930424086523881e-02 8.9105905820613007e-02  -3.1974620063986425e-01 -2.3838052585815724e-02 8.9247698407256756e-02  -2.9800137475716348e-01 -2.3721918017771269e-02 8.9389507365961934e-02  -2.7626477531754617e-01 -2.3579191386987167e-02 8.9528354425779957e-02  -2.5454492592586236e-01 -2.3404983666891425e-02 8.9655945079896840e-02  -2.3285391153344845e-01 -2.3191442735022837e-02 8.9757461591990328e-02  -2.1120954381531445e-01 -2.2926427858263491e-02 8.9809162391511987e-02  -1.8963848862839167e-01 -2.2591575618569559e-02 8.9774467292458165e-02  -1.6818084602570060e-01 -2.2159558474015146e-02 8.9597969153152740e-02  -1.4689684006316750e-01 -2.1590368048233225e-02 8.9196561739321820e-02  -1.2587642915881270e-01 -2.0826649250524000e-02 8.8446668695870312e-02  -1.0525265252979950e-01 -1.9788737215016981e-02 8.7166607801303739e-02  -8.5219093013007688e-02 -1.8371708941243872e-02 8.5093919273453625e-02  -6.6050597942545378e-02 -1.6450642548738494e-02 8.1859739078610869e-02  -4.8124851623464408e-02 -1.3906299572410416e-02 7.6964966633287890e-02  -3.1957347298932383e-02 -1.0742729290820744e-02 6.9799645791899345e-02  -1.8212393572067047e-02 -7.1838336616338342e-03 5.9600648922957959e-02  -7.8271350934560023e-03 -3.9428379179691879e-03 4.5100471276580338e-02  -1.9212150118704057e-03 -2.4929484033082592e-03 2.4925197801888645e-02  0.0000000000000000e+00 0.0000000000000000e+00 0.0000000000000000e+00  -4.5000000000000001e-01 -6.1002503655015618e-02 8.7001883670277419e-02  -4.2876401352976323e-01 -6.1125073306021550e-02 8.7409946210208353e-02  -4.0743713086237182e-01 -6.1205018769507555e-02 8.7636373103478854e-02  -3.8607544167323565e-01 -6.1234655711814918e-02 8.7797451619891886e-02  -3.6470174231638380e-01 -6.1222195523931287e-02 8.7934901562647216e-02  -3.4332763072070893e-01 -6.1172557225677299e-02 8.8063491883134837e-02  -3.2196145705830698e-01 -6.1088768018595314e-02 8.8188971488306928e-02  -3.0061080628838271e-01 -6.0971418017331441e-02 8.8311941701963742e-02  -2.7928370071519498e-01 -6.0818159679241153e-02 8.8428504781611517e-02  -2.5798961762796857e-01 -6.0623026070594201e-02 8.8529715359073793e-02  -2.3674067334242724e-01 -6.0375262744603461e-02 8.8600098933467222e-02  -2.1555319822656568e-01 -6.0057404342664336e-02 8.8615098029245443e-02  -1.9444995392670147e-01 -5.9642264560839542e-02 8.8537115324493168e-02  -1.7346332453029178e-01 -5.9088387286820879e-02 8.8309661795997987e-02  -1.5263992185616226e-01 -5.8333366872955879e-02 8.7848979328393750e-02  -1.3204715112868284e-01 -5.7284363036403774e-02 8.7032465866772837e-02  -1.1178231015337212e-01 -5.5805299503109300e-02 8.5683480325560710e-02  -9.1984586360890352e-02 -5.3701044133890131e-02 8.3553012847890351e-02  -7.2849732631152755e-02 -5.0700933570245771e-02 8.0300670719515507e-02  -5.4646999141342911e-02 -4.6447713495139341e-02 7.5479499784721155e-02  -3.7745242175760238e-02 -4.0510056294142220e-02 6.8522424099144316e-02  -2.2678530487504001e-02 -3.2461795171726468e-02 5.8770463866292880e-02  -1.0260875982605980e-02 -2.1894461550827752e-02 4.5199678940647262e-02  -1.8561343468666265e-03 -9.2449450856406414e-03 2.6215898503095959e-02  0.0000000000000000e+00 0.0000000000000000e+00 0.0000000000000000e+00  -4.5000000000000001e-01 -9.6721249790868491e-02 8.5603232272813440e-02  -4.2928864924170063e-01 -9.7410473087327851e-02 8.6202591634806106e-02  -4.0836464543512757e-01 -9.7674326371742962e-02 8.6441377778912989e-02  -3.8738200497177894e-01 -9.7774784350877997e-02 8.6590984231386114e-02  -3.6638567554525975e-01 -9.7783159220825949e-02 8.6711130626165964e-02  -3.4539672965163093e-01 -9.7728192796376720e-02 8.6821577828630980e-02  -3.2442822186109865e-01 -9.7621695699239619e-02 8.6928474418729862e-02  -3.0349093149421486e-01 -9.7467721144039135e-02 8.7032564582357447e-02  -2.8259548677690804e-01 -9.7265165783672475e-02 8.7130945691183084e-02  -2.6175349717823065e-01 -9.7008009731936976e-02 8.7216724930907333e-02  -2.4097855950836861e-01 -9.6684406815090204e-02 8.7277705025738714e-02  -2.2028745883656761e-01 -9.6274755185511596e-02 8.7294139760424855e-02  -1.9970178043760062e-01 -9.5748498700874998e-02 8.7235239559343841e-02  -1.7925017297738105e-01 -9.5059186358517248e-02 8.7053897684048753e-02  -1.5897156868956477e-01 -9.4137107446609455e-02 8.6678903138009022e-02  -1.3891973509702660e-01 -9.2878629435640472e-02 8.6003717997660337e-02  -1.1916954501906667e-01 -9.1131302846108944e-02 8.4870850988796473e-02  -9.9825190272388592e-02 -8.8674086087746448e-02 8.3051238941002359e-02  -8.1030126336564021e-02 -8.5192841864339577e-02 8.0219187320133611e-02  -6.2978376566230107e-02 -8.0251483039909075e-02 7.5924613420826639e-02  -4.5931065965775134e-02 -7.3252079604246401e-02 6.9559123452300323e-02  -3.0257117168849872e-02 -6.3379732759306293e-02 6.0316156831274191e-02  -1.6560213568103603e-02 -4.9415810459671576e-02 4.7025976404007561e-02  -5.8380302947111801e-03 -2.9373500791683143e-02 2.7898100149112398e-02  0.0000000000000000e+00 0.0000000000000000e+00 0.0000000000000000e+00  -4.5000000000000001e-01 8.8867661569314582e-02 5.1182088219153737e-02  -4.2790287548590805e-01 8.9270089186960888e-02 5.1296714939865699e-02  -4.0574613746640176e-01 8.9500881493684362e-02 5.1437495175831918e-02  -3.8355909751143824e-01 8.9677629124412198e-02 5.1573112587023837e-02  -3.6135167924475364e-01 8.9834131414115503e-02 5.1705627867810938e-02  -3.3912909811644532e-01 8.9984305310737575e-02 5.1839481164439212e-02  -3.1689538800469308e-01 9.0133734177962860e-02 5.1977557977536747e-02  -2.9465510242324788e-01 9.0282480670573484e-02 5.2120362314074929e-02  -2.7241478440998435e-01 9.0425493010971664e-02 5.2265500554883638e-02  -2.5018471075162363e-01 9.0551718760518110e-02 5.2406874515881559e-02  -2.2798127217974562e-01 9.0642027768496614e-02 5.2533284382779800e-02  -2.0583040255134821e-01 9.0665679221663673e-02 5.2626141988047513e-02  -1.8377259825818931e-01 9.0574809044902116e-02 5.2655901331548099e-02  -1.6187023749796128e-01 9.0296175525152789e-02 5.2576683201168276e-02  -1.4021805122246336e-01 8.9719236748354483e-02 5.2318466161486790e-02  -1.1895752254580672e-01 8.8679792971427349e-02 5.1776279450728747e-02  -9.8295202799787679e-02 8.6939592222403175e-02 5.0796388277987548e-02  -7.8522322069603634e-02 8.4166015934476354e-02 4.9161139942428558e-02  -6.0026715822189762e-02 7.9924889602899007e-02 4.6578147087372096e-02  -4.3275964298238739e-02 7.3719954971604884e-02 4.2691140483908138e-02  -2.8741117202115873e-02 6.5177164576569677e-02 3.7189081872859457e-02  -1.6782245835036881e-02 5.3980054390636835e-02 2.9873482611129570e-02  -7.7067540027658601e-03 3.9731746564807428e-02 2.1011964730642062e-02  -1.9752906518326662e-03 2.1876994577916451e-02 1.0867309550228412e-02  0.0000000000000000e+00 0.0000000000000000e+00 0.0000000000000000e+00  -4.5000000000000001e-01 5.1349242878125381e-02 5.1349242878125416e-02  -4.2815210782919755e-01 5.1461787252720353e-02 5.1461787252720402e-02  -4.0618707305327656e-01 5.1617645735568762e-02 5.1617645735568818e-02  -3.8417832834757087e-01 5.1760441374181280e-02 5.1760441374181336e-02  -3.6214519590387950e-01 5.1896648677968768e-02 5.1896648677968817e-02  -3.4009645378243414e-01 5.2033429726245070e-02 5.2033429726245112e-02  -3.1803795486873937e-01 5.2174686610948838e-02 5.2174686610948880e-02  -2.9597521231064722e-01 5.2321252253194381e-02 5.2321252253194422e-02  -2.7391512095568127e-01 5.2470872602641223e-02 5.2470872602641265e-02  -2.5186772541228358e-01 5.2617634373967347e-02 5.2617634373967402e-02  -2.2984847505221451e-01 5.2750744518659680e-02 5.2750744518659728e-02  -2.0788137877277293e-01 5.2852482621005684e-02 5.2852482621005732e-02  -1.8600356380182639e-01 5.2895032108451916e-02 5.2895032108451964e-02  -1.6427188769329759e-01 5.2835778213792338e-02 5.2835778213792380e-02  -1.4277239658200730e-01 5.2610564452403544e-02 5.2610564452403578e-02  -1.2163343319391223e-01 5.2124400105052190e-02 5.2124400105052211e-02  -1.0104273683150443e-01 5.1239392903024643e-02 5.1239392903024664e-02  -8.1267171148178843e-02 4.9760649092863304e-02 4.9760649092863311e-02  -6.2669232721632023e-02 4.7423446636557613e-02 4.7423446636557620e-02  -4.5705181881291752e-02 4.3892815756403317e-02 4.3892815756403331e-02  -3.0872653863195536e-02 3.8846081167974965e-02 3.8846081167974972e-02  -1.8561947855686576e-02 3.2006302006261721e-02 3.2006302006261721e-02  -9.0074242953440756e-03 2.3342955210502486e-02 2.3342955210502479e-02  -2.6476036068110468e-03 1.2718672041144595e-02 1.2718672041144593e-02  0.0000000000000000e+00 0.0000000000000000e+00 0.0000000000000000e+00  -4.5000000000000001e-01 1.3753609232660863e-02 5.1342538375485407e-02  -4.2829093844398863e-01 1.3878581542504025e-02 5.1437707461248421e-02  -4.0650443116379004e-01 1.3959848501442461e-02 5.1620919144418444e-02  -3.8466992547261086e-01 1.4051293319563665e-02 5.1782366091529967e-02  -3.6280590866894741e-01 1.4152544028653390e-02 5.1930193804875208e-02  -3.4092285792514676e-01 1.4265273862263696e-02 5.2075844817997617e-02  -3.1902769798452624e-01 1.4391391993130788e-02 5.2226152293696447e-02  -2.9712626828378580e-01 1.4532273587642992e-02 5.2383894846748880e-02  -2.7522506974574074e-01 1.4688623541201812e-02 5.2548414374646107e-02  -2.5333295027365710e-01 1.4860389613846170e-02 5.2715569076294835e-02  -2.3146314491718922e-01 1.5046579463305999e-02 5.2876974316102547e-02  -2.0963606538912938e-01 1.5244907118725053e-02 5.3018430601697947e-02  -1.8788331537070738e-01 1.5451177394684702e-02 5.3117292532024921e-02  -1.6625355604050254e-01 1.5658264260332695e-02 5.3138354421148025e-02  -1.4482102987662626e-01 1.5854441463955621e-02 5.3027614333845785e-02  -1.2369769183179198e-01 1.6020639218481309e-02 5.2703044719700602e-02  -1.0304978320318181e-01 1.6125832172874791e-02 5.2041341927474824e-02  -8.3118806570591869e-02 1.6119004467720854e-02 5.0859873133098428e-02  -6.4244179789823525e-02 1.5914573980467712e-02 4.8894663009950066e-02  -4.6878792813647520e-02 1.5363173285590644e-02 4.5782449046573144e-02  -3.1576380390158122e-02 1.4222185798814350e-02 4.1117285251512474e-02  -1.8864863245285003e-02 1.2145497021771206e-02 3.4484568762729768e-02  -9.1691903968387535e-03 8.7806581414584042e-03 2.5634069484388188e-02  -2.7266509598407305e-03 4.6084919650677724e-03 1.4273490241300384e-02  0.0000000000000000e+00 0.0000000000000000e+00 0.0000000000000000e+00  -4.5000000000000001e-01 -2.3541690233838865e-02 5.1044944838217483e-02  -4.2856274374699671e-01 -2.3463079263471423e-02 5.1134800446483705e-02  -4.0702349860413345e-01 -2.3427774339236901e-02 5.1307633475091527e-02  -3.8544058239950818e-01 -2.3391703823072093e-02 5.1469029981811819e-02  -3.6383036565811855e-01 -2.3334465281095378e-02 5.1618896207237489e-02  -3.4220356287600268e-01 -2.3253812919414502e-02 5.1766308853886417e-02  -3.2056787066817310e-01 -2.3149725497482742e-02 5.1917877889447718e-02  -2.9892965688549128e-01 -2.3021451555910268e-02 5.2076639253903885e-02  -2.7729542483187652e-01 -2.2866918984585753e-02 5.2242257993219139e-02  -2.5567323741740949e-01 -2.2682313653850639e-02 5.2410949378693256e-02  -2.3407438010482559e-01 -2.2461412958325395e-02 5.2574814783564496e-02  -2.1251557782064986e-01 -2.2194527275259279e-02 5.2720441452517551e-02  -1.9102215610059717e-01 -2.1866907351008269e-02 5.2826537204043782e-02  -1.6963266909169966e-01 -2.1456447017425554e-02 5.2860221673473651e-02  -1.4840570279134935e-01 -2.0930517264039699e-02 5.2771394351112062e-02  -1.2742977168984085e-01 -2.0241897306516387e-02 5.2484349205572128e-02  -1.0683736180064483e-01 -1.9324214315902172e-02 5.1885543798567198e-02  -8.6823971649088449e-02 -1.8088484850192887e-02 5.0806326543502679e-02  -6.7671881730194616e-02 -1.6425051547183676e-02 4.9000096964578403e-02  -4.9775120061763982e-02 -1.4219802816232002e-02 4.6117284004038903e-02  -3.3667703175450134e-02 -1.1446728517049124e-02 4.1721114798399121e-02  -1.9970785892346080e-02 -8.2346164395023028e-03 3.5342749090957783e-02  -9.3848630756169123e-03 -5.0388175708484858e-03 2.6542919520962306e-02  -2.7308166918800316e-03 -2.8324927028070810e-03 1.4893973034794818e-02  0.0000000000000000e+00 0.0000000000000000e+00 0.0000000000000000e+00  -4.5000000000000001e-01 -6.0203806021632451e-02 5.0436492091007812e-02  -4.2895912028626870e-01 -6.0289459886352717e-02 5.0506108176033480e-02  -4.0776861757033200e-01 -6.0368086513242519e-02 5.0666241647220660e-02  -3.8652086713389833e-01 -6.0396745300016395e-02 5.0814116635370506e-02  -3.6524939159465192e-01 -6.0381540777911670e-02 5.0954634503554135e-02  -3.4396899579749196e-01 -6.0327235181485181e-02 5.1094815915656955e-02  -3.2268909823845665e-01 -6.0237637932687618e-02 5.1239325364473086e-02  -3.0141735023002442e-01 -6.0114210141358919e-02 5.1390071613970766e-02  -2.8016122698008006e-01 -5.9955566875849166e-02 5.1546051300604724e-02  -2.5892922766688697e-01 -5.9756959356626067e-02 5.1702946898876979e-02  -2.3773216033551228e-01 -5.9509275364510408e-02 5.1852250879231496e-02  -2.1658478951082899e-01 -5.9197298576113389e-02 5.1979725566880686e-02  -1.9550813564257716e-01 -5.8796923062151764e-02 5.2062954880360467e-02  -1.7453280279075334e-01 -5.8270894281534938e-02 5.2067643673994322e-02  -1.5370384856250149e-01 -5.7562496573492938e-02 5.1942193413028782e-02  -1.3308788334374508e-01 -5.6586480686745461e-02 5.1609955030491400e-02  -1.1278325017817334e-01 -5.5216546599086327e-02 5.0958494082926957e-02  -9.2934169745653036e-02 -5.3269156813323976e-02 4.9825358773046946e-02  -7.3749372742063585e-02 -5.0484976518458458e-02 4.7980628834997326e-02  -5.5524599973606113e-02 -4.6513224754480269e-02 4.5109161087463163e-02  -3.8666742659872848e-02 -4.0920750090545389e-02 4.0806408098564999e-02  -2.3734765711995114e-02 -3.3305215672863750e-02 3.4646174803724505e-02  -1.1433974302999942e-02 -2.3276334105282761e-02 2.6189526099394050e-02  -2.8739520689477151e-03 -1.0974881607645487e-02 1.4868405297513248e-02  0.0000000000000000e+00 0.0000000000000000e+00 0.0000000000000000e+00  -4.5000000000000001e-01 -9.5641383042594882e-02 4.9562035347082617e-02  -4.2955987748220292e-01 -9.6426428202509309e-02 4.9597467290380656e-02  -4.0877529792218470e-01 -9.6723015254378708e-02 4.9763773642640577e-02  -3.8790243982775358e-01 -9.6837596106209858e