<?xml version="1.0"?>
<VTKFile type="UnstructuredGrid"  version="0.1"  >
<UnstructuredGrid>
<Piece  NumberOfPoints="2018" NumberOfCells="9424">
<Points>
<DataArray  type="Float64"  NumberOfComponents="3"  format="ascii">0.375 0.125 0  0.4166666666666667 0.125 0  0.4166666666666667 0.1875 0  0.4166666666666667 0.1875 0.0625  0.375 0.1875 0  0.375 0.125 0.0625  0.375 0.1875 0.0625  0.4583333333333333 0.125 0  0.4583333333333333 0.1875 0  0.4583333333333333 0.1875 0.0625  0.5 0.125 0  0.5 0.1875 0  0.5 0.1875 0.0625  0.5416666666666666 0.125 0  0.5416666666666666 0.1875 0  0.5416666666666666 0.1875 0.0625  0.5833333333333334 0.125 0  0.5833333333333334 0.1875 0  0.5833333333333334 0.1875 0.0625  0.625 0.1875 0  0.625 0.1875 0.0625  0.4166666666666667 0.25 0  0.4166666666666667 0.25 0.0625  0.375 0.25 0  0.375 0.25 0.0625  0.4583333333333333 0.25 0  0.4583333333333333 0.25 0.0625  0.5 0.25 0  0.5 0.25 0.0625  0.5416666666666666 0.25 0  0.5416666666666666 0.25 0.0625  0.5833333333333334 0.25 0  0.5833333333333334 0.25 0.0625  0.625 0.25 0  0.625 0.25 0.0625  0.6666666666666666 0.25 0  0.6666666666666666 0.25 0.0625  0.4166666666666667 0.3125 0  0.4166666666666667 0.3125 0.0625  0.375 0.3125 0  0.375 0.3125 0.0625  0.4583333333333333 0.3125 0  0.4583333333333333 0.3125 0.0625  0.5 0.3125 0  0.5 0.3125 0.0625  0.5416666666666666 0.3125 0  0.5416666666666666 0.3125 0.0625  0.5833333333333334 0.3125 0  0.5833333333333334 0.3125 0.0625  0.625 0.3125 0  0.625 0.3125 0.0625  0.6666666666666666 0.3125 0  0.6666666666666666 0.3125 0.0625  0.7083333333333334 0.25 0  0.7083333333333334 0.3125 0  0.7083333333333334 0.3125 0.0625  0.7083333333333334 0.25 0.0625  0.75 0.25 0  0.75 0.3125 0  0.75 0.3125 0.0625  0.75 0.25 0.0625  0.7916666666666666 0.25 0  0.7916666666666666 0.3125 0  0.7916666666666666 0.3125 0.0625  0.8333333333333334 0.3125 0  0.8333333333333334 0.3125 0.0625  0.3333333333333333 0.3125 0  0.375 0.375 0  0.375 0.375 0.0625  0.3333333333333333 0.3125 0.0625  0.3333333333333333 0.375 0  0.3333333333333333 0.375 0.0625  0.4166666666666667 0.375 0  0.4166666666666667 0.375 0.0625  0.4583333333333333 0.375 0  0.4583333333333333 0.375 0.0625  0.5 0.375 0  0.5 0.375 0.0625  0.5416666666666666 0.375 0  0.5416666666666666 0.375 0.0625  0.5833333333333334 0.375 0  0.5833333333333334 0.375 0.0625  0.625 0.375 0  0.625 0.375 0.0625  0.6666666666666666 0.375 0  0.6666666666666666 0.375 0.0625  0.7083333333333334 0.375 0  0.7083333333333334 0.375 0.0625  0.75 0.375 0  0.75 0.375 0.0625  0.7916666666666666 0.375 0  0.7916666666666666 0.375 0.0625  0.8333333333333334 0.375 0  0.8333333333333334 0.375 0.0625  0.875 0.3125 0  0.875 0.375 0  0.875 0.375 0.0625  0.9166666666666666 0.375 0  0.9166666666666666 0.375 0.0625  0.375 0.4375 0  0.375 0.4375 0.0625  0.4166666666666667 0.4375 0  0.4166666666666667 0.4375 0.0625  0.4583333333333333 0.4375 0  0.4583333333333333 0.4375 0.0625  0.5 0.4375 0  0.5 0.4375 0.0625  0.5416666666666666 0.4375 0  0.5416666666666666 0.4375 0.0625  0.5833333333333334 0.4375 0  0.5833333333333334 0.4375 0.0625  0.625 0.4375 0  0.625 0.4375 0.0625  0.6666666666666666 0.4375 0  0.6666666666666666 0.4375 0.0625  0.7083333333333334 0.4375 0  0.7083333333333334 0.4375 0.0625  0.75 0.4375 0  0.75 0.4375 0.0625  0.7916666666666666 0.4375 0  0.7916666666666666 0.4375 0.0625  0.8333333333333334 0.4375 0  0.8333333333333334 0.4375 0.0625  0.875 0.4375 0  0.875 0.4375 0.0625  0.9166666666666666 0.4375 0  0.9166666666666666 0.4375 0.0625  0.9583333333333334 0.375 0  0.9583333333333334 0.4375 0  0.9583333333333334 0.4375 0.0625  0.9583333333333334 0.375 0.0625  1 0.4375 0  1 0.4375 0.0625  0.4166666666666667 0.5 0  0.4166666666666667 0.5 0.0625  0.375 0.5 0  0.375 0.5 0.0625  0.4583333333333333 0.5 0  0.4583333333333333 0.5 0.0625  0.5 0.5 0  0.5 0.5 0.0625  0.5416666666666666 0.5 0  0.5416666666666666 0.5 0.0625  0.5833333333333334 0.5 0  0.5833333333333334 0.5 0.0625  0.625 0.5 0  0.625 0.5 0.0625  0.6666666666666666 0.5 0  0.6666666666666666 0.5 0.0625  0.7083333333333334 0.5 0  0.7083333333333334 0.5 0.0625  0.75 0.5 0  0.75 0.5 0.0625  0.7916666666666666 0.5 0  0.7916666666666666 0.5 0.0625  0.8333333333333334 0.5 0  0.8333333333333334 0.5 0.0625  0.875 0.5 0  0.875 0.5 0.0625  0.9166666666666666 0.5 0  0.9166666666666666 0.5 0.0625  0.9583333333333334 0.5 0  0.9583333333333334 0.5 0.0625  1 0.5 0  1 0.5 0.0625  0.4166666666666667 0.5625 0  0.4166666666666667 0.5625 0.0625  0.375 0.5625 0  0.4583333333333333 0.5625 0  0.4583333333333333 0.5625 0.0625  0.5 0.5625 0  0.5 0.5625 0.0625  0.5416666666666666 0.5625 0  0.5416666666666666 0.5625 0.0625  0.5833333333333334 0.5625 0  0.5833333333333334 0.5625 0.0625  0.625 0.5625 0  0.625 0.5625 0.0625  0.6666666666666666 0.5625 0  0.6666666666666666 0.5625 0.0625  0.7083333333333334 0.5625 0  0.7083333333333334 0.5625 0.0625  0.75 0.5625 0  0.75 0.5625 0.0625  0.7916666666666666 0.5625 0  0.7916666666666666 0.5625 0.0625  0.8333333333333334 0.5625 0  0.8333333333333334 0.5625 0.0625  0.875 0.5625 0  0.875 0.5625 0.0625  0.9166666666666666 0.5625 0  0.9166666666666666 0.5625 0.0625  0.9583333333333334 0.5625 0  0.9583333333333334 0.5625 0.0625  1 0.5625 0  1 0.5625 0.0625  0.4166666666666667 0.625 0  0.4166666666666667 0.625 0.0625  0.375 0.625 0  0.4583333333333333 0.625 0  0.4583333333333333 0.625 0.0625  0.5 0.625 0  0.5 0.625 0.0625  0.5416666666666666 0.625 0  0.5416666666666666 0.625 0.0625  0.5833333333333334 0.625 0  0.5833333333333334 0.625 0.0625  0.625 0.625 0  0.625 0.625 0.0625  0.6666666666666666 0.625 0  0.6666666666666666 0.625 0.0625  0.7083333333333334 0.625 0  0.7083333333333334 0.625 0.0625  0.75 0.625 0  0.75 0.625 0.0625  0.7916666666666666 0.625 0  0.7916666666666666 0.625 0.0625  0.8333333333333334 0.625 0  0.8333333333333334 0.625 0.0625  0.875 0.625 0  0.875 0.625 0.0625  0.9166666666666666 0.625 0  0.9166666666666666 0.625 0.0625  0.9583333333333334 0.625 0  0.9583333333333334 0.625 0.0625  1 0.625 0  1 0.625 0.0625  0.4166666666666667 0.6875 0  0.4166666666666667 0.6875 0.0625  0.4583333333333333 0.6875 0  0.4583333333333333 0.6875 0.0625  0.5 0.6875 0  0.5 0.6875 0.0625  0.5416666666666666 0.6875 0  0.5416666666666666 0.6875 0.0625  0.5833333333333334 0.6875 0  0.5833333333333334 0.6875 0.0625  0.625 0.6875 0  0.625 0.6875 0.0625  0.6666666666666666 0.6875 0  0.6666666666666666 0.6875 0.0625  0.7083333333333334 0.6875 0  0.7083333333333334 0.6875 0.0625  0.75 0.6875 0  0.75 0.6875 0.0625  0.7916666666666666 0.6875 0  0.7916666666666666 0.6875 0.0625  0.8333333333333334 0.6875 0  0.8333333333333334 0.6875 0.0625  0.875 0.6875 0  0.875 0.6875 0.0625  0.9166666666666666 0.6875 0  0.9166666666666666 0.6875 0.0625  0.9583333333333334 0.6875 0  0.9583333333333334 0.6875 0.0625  1 0.6875 0  1 0.6875 0.0625  0.4583333333333333 0.75 0  0.4583333333333333 0.75 0.0625  0.4166666666666667 0.75 0  0.4166666666666667 0.75 0.0625  0.5 0.75 0  0.5 0.75 0.0625  0.5416666666666666 0.75 0  0.5416666666666666 0.75 0.0625  0.5833333333333334 0.75 0  0.5833333333333334 0.75 0.0625  0.625 0.75 0  0.625 0.75 0.0625  0.6666666666666666 0.75 0  0.6666666666666666 0.75 0.0625  0.7083333333333334 0.75 0  0.7083333333333334 0.75 0.0625  0.75 0.75 0  0.75 0.75 0.0625  0.7916666666666666 0.75 0  0.7916666666666666 0.75 0.0625  0.8333333333333334 0.75 0  0.8333333333333334 0.75 0.0625  0.875 0.75 0  0.875 0.75 0.0625  0.9166666666666666 0.75 0  0.9166666666666666 0.75 0.0625  0.9583333333333334 0.75 0  0.9583333333333334 0.75 0.0625  1 0.75 0  1 0.75 0.0625  0.4583333333333333 0.8125 0  0.4583333333333333 0.8125 0.0625  0.5 0.8125 0  0.5 0.8125 0.0625  0.5416666666666666 0.8125 0  0.5416666666666666 0.8125 0.0625  0.5833333333333334 0.8125 0  0.5833333333333334 0.8125 0.0625  0.625 0.8125 0  0.625 0.8125 0.0625  0.6666666666666666 0.8125 0  0.6666666666666666 0.8125 0.0625  0.7083333333333334 0.8125 0  0.7083333333333334 0.8125 0.0625  0.75 0.8125 0  0.75 0.8125 0.0625  0.7916666666666666 0.8125 0  0.7916666666666666 0.8125 0.0625  0.8333333333333334 0.8125 0  0.8333333333333334 0.8125 0.0625  0.875 0.8125 0  0.875 0.8125 0.0625  0.9166666666666666 0.8125 0  0.9166666666666666 0.8125 0.0625  0.9583333333333334 0.8125 0  0.9583333333333334 0.8125 0.0625  1 0.8125 0  1 0.8125 0.0625  0.5 0.875 0  0.5 0.875 0.0625  0.4583333333333333 0.875 0  0.5416666666666666 0.875 0  0.5416666666666666 0.875 0.0625  0.5833333333333334 0.875 0  0.5833333333333334 0.875 0.0625  0.625 0.875 0  0.625 0.875 0.0625  0.6666666666666666 0.875 0  0.6666666666666666 0.875 0.0625  0.7083333333333334 0.875 0  0.7083333333333334 0.875 0.0625  0.75 0.875 0  0.75 0.875 0.0625  0.7916666666666666 0.875 0  0.7916666666666666 0.875 0.0625  0.8333333333333334 0.875 0  0.8333333333333334 0.875 0.0625  0.875 0.875 0  0.875 0.875 0.0625  0.9166666666666666 0.875 0  0.9166666666666666 0.875 0.0625  0.9583333333333334 0.875 0  0.9583333333333334 0.875 0.0625  1 0.875 0  1 0.875 0.0625  0.5 0.9375 0  0.5 0.9375 0.0625  0.5416666666666666 0.9375 0  0.5416666666666666 0.9375 0.0625  0.5833333333333334 0.9375 0  0.5833333333333334 0.9375 0.0625  0.625 0.9375 0  0.625 0.9375 0.0625  0.6666666666666666 0.9375 0  0.6666666666666666 0.9375 0.0625  0.7083333333333334 0.9375 0  0.7083333333333334 0.9375 0.0625  0.75 0.9375 0  0.75 0.9375 0.0625  0.7916666666666666 0.9375 0  0.7916666666666666 0.9375 0.0625  0.8333333333333334 0.9375 0  0.8333333333333334 0.9375 0.0625  0.875 0.9375 0  0.875 0.9375 0.0625  0.9166666666666666 0.9375 0  0.9166666666666666 0.9375 0.0625  0.9583333333333334 0.9375 0  0.9583333333333334 0.9375 0.0625  1 0.9375 0  1 0.9375 0.0625  0.5416666666666666 1 0  0.5416666666666666 1 0.0625  0.5 1 0  0.5833333333333334 1 0  0.5833333333333334 1 0.0625  0.625 1 0  0.625 1 0.0625  0.6666666666666666 1 0  0.6666666666666666 1 0.0625  0.7083333333333334 1 0  0.7083333333333334 1 0.0625  0.75 1 0  0.75 1 0.0625  0.7916666666666666 1 0  0.7916666666666666 1 0.0625  0.8333333333333334 1 0  0.8333333333333334 1 0.0
[...]
<PointData  Vectors="f_10"> 
<DataArray  type="Float64"  Name="f_10"  NumberOfComponents="3" format="ascii">6.1578563541163540e-02 5.8520084614831158e-02 6.5626285799792655e-02  6.6407356753007130e-02 6.2283524472654693e-02 6.8905741680611546e-02  6.3831830061484351e-02 5.8887636686752988e-02 6.9130345925623615e-02  6.0035431762072371e-02 5.8703975321037417e-02 6.5807899224603436e-02  5.8908273110300467e-02 5.4919159735863386e-02 6.5856958511481087e-02  5.7733725585184865e-02 5.8354317091632725e-02 6.2092388710780051e-02  5.5027639969643473e-02 5.4748301007679440e-02 6.2306171014858747e-02  7.0899347023195933e-02 6.5955980276416651e-02 7.2141846683951724e-02  6.8441260230195519e-02 6.2760821395337021e-02 7.2381297950101564e-02  6.4724041305600374e-02 6.2559875080026417e-02 6.9264606829243458e-02  7.5070790208913427e-02 6.9560872607309823e-02 7.5345794234570870e-02  7.2749040439616885e-02 6.6562762050762017e-02 7.5619952720288694e-02  6.9116325089474920e-02 6.6341318081600709e-02 7.2694257562282608e-02  7.8932468509465198e-02 7.3106609525475624e-02 7.8516740095937329e-02  7.6763864675717025e-02 7.0303151597914657e-02 7.8844254520919629e-02  7.3230667975399899e-02 7.0059286968638834e-02 7.6100781569104187e-02  8.2490854255206608e-02 7.6589405477403658e-02 8.1643734464260612e-02  8.0490982496258121e-02 7.3979835362159158e-02 8.2041751948622552e-02  7.7081399585918545e-02 7.3713065308936968e-02 7.9476526755025007e-02  8.3932403747312381e-02 7.7580406231145524e-02 8.5190177091236746e-02  8.0679008588168996e-02 7.7291907038916127e-02 8.2803295976750846e-02  6.1786425784192460e-02 5.5405826701684743e-02 6.9396983367944476e-02  5.7933346437964529e-02 5.5238772190357756e-02 6.6060828914607184e-02  5.6795742892366427e-02 5.1264878390702637e-02 6.6109426985951319e-02  5.2856951117303187e-02 5.1117343918666944e-02 6.2551551500787131e-02  6.6491111560396485e-02 5.9456752013337673e-02 7.2679480977243527e-02  6.2716113546181132e-02 5.9263751236271124e-02 6.9540564059081697e-02  7.0916066963036165e-02 6.3438979294919096e-02 7.5967067535228944e-02  6.7222931128961591e-02 6.3215372937269809e-02 7.3009163990765166e-02  7.5065321578351177e-02 6.7361123203957568e-02 7.9256679043008829e-02  7.1468652996020662e-02 6.7104053285859791e-02 7.6470013061460590e-02  7.8940587882773111e-02 7.1221309014938089e-02 8.2534108949753562e-02  7.5465148616231256e-02 7.0929768198104190e-02 7.9914105250875653e-02  8.2540858735020442e-02 7.5008348757362911e-02 8.5774373381409669e-02  7.9220916725187607e-02 7.4683381687027303e-02 8.3320964021473543e-02  8.5862034542067228e-02 7.8702607344371664e-02 8.8940917015808627e-02  8.2740570401422964e-02 7.8347574041080975e-02 8.6658254988672634e-02  6.0207230202586864e-02 5.1861862883516477e-02 6.9634497098206682e-02  5.6279132080887154e-02 5.1736064807863538e-02 6.6291780499751984e-02  5.5180722083917305e-02 4.7586526602806947e-02 6.6308154360216628e-02  5.1165389620386394e-02 4.7489767568270419e-02 6.2751130838663655e-02  6.4977948639117225e-02 5.6063258540688006e-02 7.2967658935296872e-02  6.1128432028257122e-02 5.5901157100927655e-02 6.9813248440359466e-02  6.9492598296168107e-02 6.0206588156777791e-02 7.6318946341386973e-02  6.5724821540224257e-02 6.0002930753904511e-02 7.3335421348839760e-02  7.3749740597482558e-02 6.4297662770316469e-02 7.9684871046606487e-02  7.0078426233781757e-02 6.4049324936976598e-02 7.6861655125739350e-02  7.7746062733878907e-02 6.8333187772481638e-02 8.3049320941829943e-02  7.4197072065911140e-02 6.8039369432034799e-02 8.0381613567578697e-02  8.1476403069978443e-02 7.2302412618156578e-02 8.6384377142086466e-02  7.8085982288034955e-02 7.1964638448681839e-02 8.3872300898679017e-02  8.4932842555507440e-02 7.6187379327100138e-02 8.9649064090435410e-02  8.1746734433574067e-02 7.5809727499033738e-02 8.7297416573016012e-02  8.8896286757552623e-02 8.2276477839185652e-02 9.1983497698379102e-02  8.8104071317107457e-02 7.9963506367736956e-02 9.2786899008551540e-02  8.5176146265040359e-02 7.9552847277022401e-02 9.0605310751143531e-02  8.6023869526345206e-02 8.1897381570197755e-02 8.9880128511899651e-02  9.1631006190556905e-02 8.5694603721356163e-02 9.4834483872296746e-02  9.0974392095644480e-02 8.3599988681612905e-02 9.5721609256321519e-02  8.8364485344045868e-02 8.3166268737924681e-02 9.3725305958181487e-02  8.9064068810571509e-02 8.5300491286836741e-02 9.2924140920101456e-02  9.4047096162287680e-02 8.8913959070978113e-02 9.7403012826536045e-02  9.3522163064685943e-02 8.7060133291039121e-02 9.8350459944183552e-02  9.1292681926109953e-02 8.6616761868502867e-02 9.6561979223833527e-02  9.5717338381871325e-02 9.0301644549878171e-02 1.0053423338131426e-01  9.3928065723026075e-02 8.9866188667015512e-02 9.8986705766647295e-02  4.9898803330419732e-02 4.3210502749699314e-02 6.2957962156897668e-02  5.3977712495625309e-02 4.3910448155120817e-02 6.6398547364669130e-02  4.9873658679800995e-02 4.3887661727568243e-02 6.2849424897726894e-02  4.5775949711923787e-02 4.3133555611973080e-02 5.9149300408329879e-02  4.8724149586840092e-02 3.9474946832740304e-02 6.2988063254369508e-02  4.4513850136704877e-02 3.9484191058749139e-02 5.9194249683481193e-02  5.9010696361929169e-02 4.8282811642002550e-02 6.9788069938180750e-02  5.4994165041378856e-02 4.8218946613672778e-02 6.6445084846230601e-02  6.3816814401750521e-02 5.2606667771462529e-02 7.3191008220163056e-02  5.9879835604025371e-02 5.2494511282843277e-02 7.0026989099568046e-02  6.8390700042546410e-02 5.6890832502204162e-02 7.6620492169990090e-02  6.4536904370719309e-02 5.6725190684355123e-02 7.3616980999527043e-02  7.2726327337305940e-02 6.1137533913739731e-02 8.0073273575293299e-02  6.8971126161516585e-02 6.0915390671062337e-02 7.7218848605777879e-02  7.6815713920904236e-02 6.5341877338975826e-02 8.3531830695796269e-02  7.3186203600843866e-02 6.5062714707474489e-02 8.0821219164281435e-02  8.0648258007413820e-02 6.9491790042416818e-02 8.6964782755937317e-02  7.7182863696120929e-02 6.9158011849555237e-02 8.4398491944906021e-02  8.4211845403613803e-02 7.3570539220924797e-02 9.0326800651455444e-02  8.0959048598287384e-02 7.3187190175244443e-02 8.7910386909778648e-02  8.7491284650866252e-02 7.7555966219428549e-02 9.3555194397145186e-02  8.4508027048113693e-02 7.7130949444719238e-02 9.1299485061111463e-02  9.0467661606507793e-02 8.1421174489585108e-02 9.6565384958825010e-02  8.7816706334254535e-02 8.0965396698871775e-02 9.4487169585772024e-02  9.3117032118759283e-02 8.5135016547278647e-02 9.9243702178989202e-02  9.0862839237103615e-02 8.4662633165183687e-02 9.7367375809007783e-02  9.5408219918390588e-02 8.8662492349097913e-02 1.0143661535400721e-01  9.3610718642908139e-02 8.8191537577674312e-02 9.9797464308019668e-02  9.7517830790819160e-02 9.3276770714096374e-02 1.0208268714551549e-01  9.7299309786463575e-02 9.1964771444901908e-02 1.0293505186849693e-01  9.6004668652750411e-02 9.1518996493276994e-02 1.0158515445959401e-01  9.8733487663934236e-02 9.4997975194123854e-02 1.0345359918837338e-01  9.7959578787157983e-02 9.4612169535911061e-02 1.0247008118837371e-01  5.3087682648588569e-02 4.0255614741534863e-02 6.6347086232325422e-02  4.8887484758879836e-02 4.0323254095473958e-02 6.2812677115611587e-02  5.8101521013789847e-02 4.4693776508520570e-02 6.9820897356490719e-02  5.3987470224590085e-02 4.4706134157800947e-02 6.6483453322779884e-02  6.2913505416860291e-02 4.9114677605894129e-02 7.3310858238442744e-02  5.8879787133537677e-02 4.9065248130150098e-02 7.0142473729795207e-02  6.7515781363340160e-02 5.3519682837637000e-02 7.6831767699914358e-02  6.3567570293126166e-02 5.3403880411338936e-02 7.3813190254264804e-02  7.1899848404884309e-02 5.7907537026760623e-02 8.0381052362861180e-02  6.8053841787821034e-02 5.7722764040615000e-02 7.7500001003037028e-02  7.6054934482058981e-02 6.2272707793090076e-02 8.3940624440786940e-02  7.2339516830653636e-02 6.2018615726264992e-02 8.1190945832045738e-02  7.9966494233009874e-02 6.6603578336026564e-02 8.7476661657915317e-02  7.6421696602683886e-02 6.6282704730433961e-02 8.4858289275117058e-02  8.3615619386860976e-02 7.0881249635757024e-02 9.0938104428779712e-02  8.0292691643009534e-02 7.0499946884695255e-02 8.8457616635567130e-02  8.6983244131427606e-02 7.5085671603625656e-02 9.4256610775673197e-02  8.3941986864482260e-02 7.4653009868276915e-02 9.1926090509183281e-02  9.0046874122436130e-02 7.9192679738727845e-02 9.7339757934520973e-02  8.7352647147632773e-02 7.8720725201960440e-02 9.5177722579657689e-02  9.2780084704976229e-02 8.3175154880988672e-02 1.0006387474656203e-01  9.0498980276614821e-02 8.2679096414057074e-02 9.8096859148692539e-02  9.5150596229959319e-02 8.7003459713763012e-02 1.0226276195004244e-01  9.3342288255376313e-02 8.6502224050105922e-02 1.0052867204009261e-01  9.7116806439372635e-02 9.0645308204122518e-02 1.0371113463047800e-01  9.5824259656757643e-02 9.0163724914338356e-02 1.0226561916371942e-01  9.8622965427815110e-02 9.4063991779203188e-02 1.0410202490884238e-01  9.7857054597000309e-02 9.3639450868950674e-02 1.0302837524974869e-01  9.9642980723029309e-02 9.7707448621066770e-02 1.0261558973573806e-01  9.9599886831085338e-02 9.7211515356217554e-02 1.0302679927620984e-01  9.9309899349578998e-02 9.6914087714924907e-02 1.0243992917764329e-01  9.9348868204102075e-02 9.7443245575557724e-02 1.0209876211491711e-01  1.0000000000000001e-01 1.0000000000000001e-01 1.0000000000000001e-01  1.0000000000000001e-01 1.0000000000000001e-01 1.0000000000000001e-01  5.7378118662725498e-02 4.1116647525385804e-02 6.9713213655891171e-02  5.3160020785745526e-02 4.1211416652523154e-02 6.6386805126664866e-02  5.2406347043718091e-02 3.6634345933253196e-02 6.6138266980288740e-02  4.8104803933376537e-02 3.6800407028453670e-02 6.2625424185613635e-02  6.2167734592200527e-02 4.5614254184255673e-02 7.3304787082317871e-02  5.8030450823570411e-02 4.5632359969147399e-02 7.0136710878953012e-02  6.6767785541766059e-02 5.0121603817561387e-02 7.6928502279783817e-02  6.2718931151245466e-02 5.0059567509152365e-02 7.3899124610911970e-02  7.1169950698756479e-02 5.4634564018935565e-02 8.0582457226877430e-02  6.7228106480830316e-02 5.4490615230404917e-02 7.7678851207398009e-02  7.5363409265754897e-02 5.9148369403050856e-02 8.4248815028611243e-02  7.1558397002357679e-02 5.8922425538529423e-02 8.1463779889179008e-02  7.9332801524969382e-02 6.3654856140859750e-02 8.7892996842944146e-02  7.5705709566368115e-02 6.3348945906040371e-02 8.5224966634039542e-02  8.3055988784657211e-02 6.8138605816573883e-02 9.1460804585958261e-02  7.9659048286850276e-02 6.7758139294705089e-02 8.8914929384714417e-02  8.6502904959251406e-02 7.2572968378936661e-02 9.4874245975336169e-02  8.3399043121090644e-02 7.2129067035868299e-02 9.2464769597713978e-02  8.9647821278057177e-02 7.6936550131917303e-02 9.8034313408823584e-02  8.6904936058994853e-02 7.6442828253842021e-02 9.5781761750279859e-02  9.2460935562058491e-02 8.1204036261725288e-02 1.0080782755949411e-01  9.0146753968116805e-02 8.0677407568614315e-02 9.8741470150718880e-02  9.4908084244310645e-02 8.5348392637969298e-02 1.0301682408429504e-01  9.3082175583751023e-02 8.4809720392097235e-02 1.0117817064958105e-01  9.6947206786851231e-02 8.9340647478310178e-02 1.0442120435369857e-01  9.5649841944929301e-02 8.8817293143419601e-02 1.0287101960403153e-01  9.8522562017803725e-02 9.3147938198316196e-02 1.0469446041142542e-01  9.7758861204454497e-02 9.2681625137669976e-02 1.0352451339585864e-01  9.9562132316311391e-02 9.6727134408439025e-02 1.0339971083893207e-01  9.9273687576118971e-02 9.6397182053595473e-02 1.0274193555752936e-01  1.0000000000000001e-01 1.0000000000000001e-01 1.0000000000000001e-01  1.0000000000000001e-01 1.0000000000000001e-01 1.0000000000000001e-01  5.6735579553015662e-02 3.7571465440244201e-02 6.9460104301469913e-02  5.2407543762286748e-02 3.7745738034983184e-02 6.6149882928186632e-02  5.1828597503712610e-02 3.3056094433947018e-02 6.5770309418668099e-02  6.1474807527019788e-02 4.2131767452688533e-02 7.3165722881837106e-02  5.7228044924631377e-02 4.2213163350942627e-02 7.0001957623838387e-02  6.6041850121064768e-02 4.6725423905814280e-02 7.6901999490931308e-02  6.1887068852717615e-02 4.6712019392740181e-02 7.3865248086663463e-02  7.0431045395231248e-02 5.1346075438260287e-02 8.0667239512320382e-02  6.6389266814430858e-02 5.1237457313075364e-02 7.7744426406636855e-02  7.4634269556139055e-02 5.5990763560423894e-02 8.4444299949699639e-02  7.0737087381979799e-02 5.5787601592365829e-02 8.1627483811715265e-02  7.8638931966069442e-02 6.0657295338281111e-02 8.8199438732801394e-02  7.4928375967161592e-02 6.0361214322279720e-02 8.5485326334107894e-02  8.2424930953307843e-02 6.5339742479397514e-02 9.1878641195180480e-02  7.8953063419505545e-02 6.4953990993974489e-02 8.9269299027416829e-02  8.5960308114399309e-02 7.0020405113952203e-02 9.5400959945054722e-02  8.2788900681991809e-02 6.9552440715391350e-02 9.2906768906562451e-02  8.9196742239239138e-02 7.4657221941137691e-02 9.8649200489988417e-02  8.6397744172339863e-02 7.4125072465943881e-02 9.6295722972304612e-02  9.2102796759948105e-02 7.9228579938616511e-02 1.0148337158318188e-01  8.9746201208503310e-02 7.8652120351765151e-02 9.9303590091132404e-02  9.4640526314136969e-02 8.3706266988652980e-02 1.0371352868503225e-01  9.2786642405597475e-02 8.3110174719228103e-02 1.0175418682588649e-01  9.6765560763765537e-02 8.8060362737185302e-02 1.0508466290769811e-01  9.5453168654489440e-02 8.7477100943178246e-02 1.0341410597729549e-01  9.8419979370147459e-02 9.2257708672983926e-02 1.0525074080700025e-01  9.7650328776009904e-02 9.1736481553016003e-02 1.0397279675720321e-01  9.9526160947184916e-02 9.6258278678137035e-02 1.0374803737191939e-01  9.9235709348031498e-02 9.5890118342292677e-02 1.0301555235805322e-01  1.0000000000000001e-01 1.0000000000000001e-01 1.0000000000000001e-01  1.0000000000000001e-01 1.0000000000000001e-01 1.0000000000000001e-01  5.6065496724892763e-02 3.4078586899352344e-02 6.9069118379337532e-02  5.1620777688588554e-02 3.4320229292262486e-02 6.5779811865024962e-02  5.1248443635815141e-02 2.9531794956873674e-02 6.5251302464581079e-02  6.0725219261934416e-02 3.8693840781371502e-02 7.2900674561434009e-02  5.6362586696641293e-02 3.8824964949585990e-02 6.9744393466477247e-02  6.5227816333587027e-02 4.3360787335304969e-02 7.6758782995240193e-02  6.0961488029790484e-02 4.3381370915456227e-02 7.3716932833942261e-02  6.9572030009897950e-02 4.8071191385518679e-02 8.0641190239464797e-02  6.5425933141921647e-02 4.7982702562913829e-02 7.7701244591926441e-02  7.3754443184209997e-02 5.2824066249283118e-02 8.4531350454056894e-02  6.9762421407592742e-02 5.2628674192190042e-02 8.1685375170525126e-02  7.7768042049366576e-02 5.7623936023178550e-02 8.8397201460368391e-02  7.3973490152042146e-02 5.7323796414772928e-02 8.5640862036815729e-02  8.1599534961354234e-02 6.2477615554918993e-02 9.2187456548952496e-02  7.8054403012462498e-02 6.2074476940584641e-02 8.9519810808242894e-02  8.5224266243712196e-02 6.7386987213890082e-02 9.5824261760569449e-02  8.1987653037485883e-02 6.6883097395969510e-02 9.3249408486490049e-02  8.8596607163848470e-02 7.2332218480457414e-02 9.9190130989129002e-02  8.5734209597666672e-02 7.1735496338045920e-02 9.6723595427948172e-02  9.1632354909917640e-02 7.7232299836653778e-02 1.0210589301915766e-01  8.9221606470067369e-02 7.6574206478275342e-02 9.9793481310864740e-02  9.4297164485239809e-02 8.2066916460266662e-02 1.0437646575318073e-01  9.2401278532813325e-02 8.1379228700822745e-02 1.0227280034402682e-01  9.6541124200427833e-02 8.6799323840612716e-02 1.0572982546755477e-01  9.5199746742767266e-02 8.6124044873369249e-02 1.0391475409052937e-01  9.8300557777066852e-02 9.1390587421869590e-02 1.0579795846163445e-01  9.7513973405545601e-02 9.0789863468867499e-02 1.0439296295731496e-01  9.9487940420290868e-02 9.5802335019696455e-02 1.0408927312381726e-01  9.9190822439246720e-02 9.5383636552727830e-02 1.0327433695755978e-01  1.0000000000000001e-01 1.0000000000000001e-01 1.0000000000000001e-01  1.0000000000000001e-01 1.0000000000000001e-01 1.0000000000000001e-01  5.5252040575667537e-02 3.0659817954906309e-02 6.8558238709513525e-02  5.0682284224702591e-02 3.0948490924633729e-02 6.5294271760110198e-02  5.9801411390353970e-02 3.5327295569590134e-02 7.2529260723753472e-02  5.5315120641784080e-02 3.5486210291897934e-02 6.9382853887225010e-02  6.4207680946935450e-02 4.0057570185603575e-02 7.6519835223527885e-02  5.9822807580004349e-02 4.0088748815451103e-02 7.3473873344079302e-02  6.8474696388630435e-02 4.4840500670551342e-02 8.0526338394266414e-02  6.4218399311062685e-02 4.4747572954982419e-02 7.7569563002942862e-02  7.2604569480134315e-02 4.9676311107537410e-02 8.4532242912947725e-02  6.8513432544166780e-02 4.9463568912266435e-02 8.1657655734854187e-02  7.6597116392158271e-02 5.4574910980153067e-02 8.8506989396329686e-02  7.2716659984710733e-02 5.4246286498942226e-02 8.5710501709085979e-02  8.0448387153441783e-02 5.9554817816112091e-02 9.2402744479305812e-02  7.6831577711928709e-02 5.9112686682455728e-02 8.9682100185806510e-02  8.4147087184940406e-02 6.4639863646104870e-02 9.6147890948764150e-02  8.0851586122843794e-02 6.4083934076139062e-02 9.3502396190120449e-02  8.7665861462002823e-02 6.9848382271915019e-02 9.9634521811120702e-02  8.4750443619589888e-02 6.9176395199592955e-02 9.7067664982746910e-02  9.0939841018458423e-02 7.5159289511999336e-02 1.0269358923914303e-01  8.8463528017958870e-02 7.4376671623756510e-02 1.0022554104139986e-01  9.3804793073169593e-02 8.0390889665005169e-02 1.0503730449379040e-01  9.1848727936102034e-02 7.9561158988031261e-02 1.0275642668996199e-01  9.6231364256763319e-02 8.5532307140923330e-02 1.0639615099356033e-01  9.4841436446768623e-02 8.4715150432186387e-02 1.0440041936889989e-01  9.8145117861486345e-02 9.0530931402348608e-02 1.0637401249084212e-01  9.7325992929661001e-02 8.9811420693741179e-02 1.0481197101161714e-01  9.9442560642247102e-02 9.5349004192033293e-02 1.0444712805692460e-01  9.9132359004854301e-02 9.4859685361555937e-02 1.0353640635784458e-01  1.0000000000000001e-01 1.0000000000000001e-01 1.0000000000000001e-01  1.0000000000000001e-01 1.0000000000000001e-01 1.0000000000000001e-01  5.8570836404414579e-02 3.2056656083548719e-02 7.2081601079898389e-02  5.3951563564571488e-02 3.2215795910899778e-02 6.8947341901521270e-02  5.4163678276563779e-02 2.7336918120779451e-02 6.7954050095041379e-02  4.9459140661587589e-02 2.7646724596404899e-02 6.4720249602307184e-02  6.2849923286658282e-02 3.6842715765228545e-02 7.6218699030942888e-02  5.8337661408873066e-02 3.6855050355214691e-02 7.3168847136013987e-02  6.7009461743794907e-02 4.1682838961585505e-02 8.0359755128559404e-02  6.2634756614151119e-02 4.1553922448443248e-02 7.7384856249774286e-02  7.1056591247334822e-02 4.6577141814071445e-02 8.4487454911693322e-02  6.6859128149678967e-02 4.6313399979081057e-02 8.1582187473975151e-02  7.4997446684524988e-02 5.1538115789701529e-02 8.8571714498428919e-02  7.1025632018522078e-02 5.1145958666888432e-02 8.5733476256859065e-02  7.8837184415321768e-02 5.6591368204022413e-02 9.2566967069012560e-02  7.5146522777866764e-02 5.6075939197425748e-02 8.9794423584326780e-02  8.2578918353475805e-02 6.1776524134389658e-02 9.6406985801879105e-02  7.9228507852813976e-02 6.1139729330636008e-02 9.3698569800893375e-02  8.6219428761869846e-02 6.7145883731812669e-02 9.9995182911685784e-02  8.3265840995901119e-02 6.6383622867429062e-02 9.7348177121748938e-02  8.9735159175289431e-02 7.2751419988724406e-02 1.0318486177978704e-01  8.7224118031365885e-02 7.1852268958828444e-02 1.0059840013701941e-01  9.3037020118065750e-02 7.8582234031361664e-02 1.0573281981383148e-01  9.1000847069224289e-02 7.7542686981536990e-02 1.0322983879303411e-01  9.5768565366868119e-02 8.4200771563776894e-02 1.0713931249725082e-01  9.4300990212051614e-02 8.3166966210526688e-02 1.0490736161750223e-01  9.7926185780465802e-02 8.9645378083740443e-02 1.0703643243105966e-01  9.7049461063827766e-02 8.8745508026756986e-02 1.0526835848119269e-01  9.9383822258491725e-02 9.4878070229479194e-02 1.0485765369952746e-01  9.9050550390