<?xml version="1.0"?>
<VTKFile type="UnstructuredGrid"  version="0.1"  >
<UnstructuredGrid>
<Piece  NumberOfPoints="1944" NumberOfCells="9012">
<Points>
<DataArray  type="Float64"  NumberOfComponents="3"  format="ascii">0 0 0  0.04166666666666666 0 0  0.04166666666666666 0.0625 0  0.04166666666666666 0.0625 0.0625  0.04166666666666666 0 0.0625  0 0 0.0625  0 0.0625 0  0 0.0625 0.0625  0.08333333333333333 0 0  0.08333333333333333 0.0625 0  0.08333333333333333 0.0625 0.0625  0.08333333333333333 0 0.0625  0.125 0 0  0.125 0.0625 0  0.125 0.0625 0.0625  0.125 0 0.0625  0.1666666666666667 0 0  0.1666666666666667 0.0625 0  0.1666666666666667 0.0625 0.0625  0.1666666666666667 0 0.0625  0.2083333333333333 0 0  0.2083333333333333 0.0625 0  0.2083333333333333 0.0625 0.0625  0.2083333333333333 0 0.0625  0.25 0 0  0.25 0.0625 0  0.25 0.0625 0.0625  0.25 0 0.0625  0.2916666666666667 0 0  0.2916666666666667 0.0625 0  0.2916666666666667 0.0625 0.0625  0.2916666666666667 0 0.0625  0.3333333333333333 0 0.0625  0.3333333333333333 0.0625 0.0625  0.3333333333333333 0.0625 0  0.04166666666666666 0.125 0  0.04166666666666666 0.125 0.0625  0 0.125 0  0 0.125 0.0625  0.08333333333333333 0.125 0  0.08333333333333333 0.125 0.0625  0.125 0.125 0  0.125 0.125 0.0625  0.1666666666666667 0.125 0  0.1666666666666667 0.125 0.0625  0.2083333333333333 0.125 0  0.2083333333333333 0.125 0.0625  0.25 0.125 0  0.25 0.125 0.0625  0.2916666666666667 0.125 0  0.2916666666666667 0.125 0.0625  0.3333333333333333 0.125 0  0.3333333333333333 0.125 0.0625  0.375 0.125 0  0.375 0.125 0.0625  0.04166666666666666 0.1875 0  0.04166666666666666 0.1875 0.0625  0 0.1875 0  0 0.1875 0.0625  0.08333333333333333 0.1875 0  0.08333333333333333 0.1875 0.0625  0.125 0.1875 0  0.125 0.1875 0.0625  0.1666666666666667 0.1875 0  0.1666666666666667 0.1875 0.0625  0.2083333333333333 0.1875 0  0.2083333333333333 0.1875 0.0625  0.25 0.1875 0  0.25 0.1875 0.0625  0.2916666666666667 0.1875 0  0.2916666666666667 0.1875 0.0625  0.3333333333333333 0.1875 0  0.3333333333333333 0.1875 0.0625  0.375 0.1875 0  0.375 0.1875 0.0625  0.04166666666666666 0.25 0  0.04166666666666666 0.25 0.0625  0 0.25 0  0 0.25 0.0625  0.08333333333333333 0.25 0  0.08333333333333333 0.25 0.0625  0.125 0.25 0  0.125 0.25 0.0625  0.1666666666666667 0.25 0  0.1666666666666667 0.25 0.0625  0.2083333333333333 0.25 0  0.2083333333333333 0.25 0.0625  0.25 0.25 0  0.25 0.25 0.0625  0.2916666666666667 0.25 0  0.2916666666666667 0.25 0.0625  0.3333333333333333 0.25 0  0.3333333333333333 0.25 0.0625  0.375 0.25 0  0.375 0.25 0.0625  0.04166666666666666 0.3125 0  0.04166666666666666 0.3125 0.0625  0 0.3125 0  0 0.3125 0.0625  0.08333333333333333 0.3125 0  0.08333333333333333 0.3125 0.0625  0.125 0.3125 0  0.125 0.3125 0.0625  0.1666666666666667 0.3125 0  0.1666666666666667 0.3125 0.0625  0.2083333333333333 0.3125 0  0.2083333333333333 0.3125 0.0625  0.25 0.3125 0  0.25 0.3125 0.0625  0.2916666666666667 0.3125 0  0.2916666666666667 0.3125 0.0625  0.3333333333333333 0.3125 0  0.3333333333333333 0.3125 0.0625  0.375 0.3125 0  0.375 0.3125 0.0625  0.04166666666666666 0.375 0  0.04166666666666666 0.375 0.0625  0 0.375 0  0 0.375 0.0625  0.08333333333333333 0.375 0  0.08333333333333333 0.375 0.0625  0.125 0.375 0  0.125 0.375 0.0625  0.1666666666666667 0.375 0  0.1666666666666667 0.375 0.0625  0.2083333333333333 0.375 0  0.2083333333333333 0.375 0.0625  0.25 0.375 0  0.25 0.375 0.0625  0.2916666666666667 0.375 0  0.2916666666666667 0.375 0.0625  0.3333333333333333 0.375 0  0.3333333333333333 0.375 0.0625  0.04166666666666666 0.4375 0  0.04166666666666666 0.4375 0.0625  0 0.4375 0  0 0.4375 0.0625  0.08333333333333333 0.4375 0  0.08333333333333333 0.4375 0.0625  0.125 0.4375 0  0.125 0.4375 0.0625  0.1666666666666667 0.4375 0  0.1666666666666667 0.4375 0.0625  0.2083333333333333 0.4375 0  0.2083333333333333 0.4375 0.0625  0.25 0.4375 0  0.25 0.4375 0.0625  0.2916666666666667 0.4375 0  0.2916666666666667 0.4375 0.0625  0.3333333333333333 0.4375 0  0.3333333333333333 0.4375 0.0625  0.375 0.4375 0  0.375 0.4375 0.0625  0.04166666666666666 0.5 0  0.04166666666666666 0.5 0.0625  0 0.5 0  0 0.5 0.0625  0.08333333333333333 0.5 0  0.08333333333333333 0.5 0.0625  0.125 0.5 0  0.125 0.5 0.0625  0.1666666666666667 0.5 0  0.1666666666666667 0.5 0.0625  0.2083333333333333 0.5 0  0.2083333333333333 0.5 0.0625  0.25 0.5 0  0.25 0.5 0.0625  0.2916666666666667 0.5 0  0.2916666666666667 0.5 0.0625  0.3333333333333333 0.5 0  0.3333333333333333 0.5 0.0625  0.375 0.5 0  0.375 0.5 0.0625  0.04166666666666666 0.5625 0  0.04166666666666666 0.5625 0.0625  0 0.5625 0  0 0.5625 0.0625  0.08333333333333333 0.5625 0  0.08333333333333333 0.5625 0.0625  0.125 0.5625 0  0.125 0.5625 0.0625  0.1666666666666667 0.5625 0  0.1666666666666667 0.5625 0.0625  0.2083333333333333 0.5625 0  0.2083333333333333 0.5625 0.0625  0.25 0.5625 0  0.25 0.5625 0.0625  0.2916666666666667 0.5625 0  0.2916666666666667 0.5625 0.0625  0.3333333333333333 0.5625 0  0.3333333333333333 0.5625 0.0625  0.375 0.5625 0  0.375 0.5625 0.0625  0.4166666666666667 0.5625 0.0625  0.04166666666666666 0.625 0  0.04166666666666666 0.625 0.0625  0 0.625 0  0 0.625 0.0625  0.08333333333333333 0.625 0  0.08333333333333333 0.625 0.0625  0.125 0.625 0  0.125 0.625 0.0625  0.1666666666666667 0.625 0  0.1666666666666667 0.625 0.0625  0.2083333333333333 0.625 0  0.2083333333333333 0.625 0.0625  0.25 0.625 0  0.25 0.625 0.0625  0.2916666666666667 0.625 0  0.2916666666666667 0.625 0.0625  0.3333333333333333 0.625 0  0.3333333333333333 0.625 0.0625  0.375 0.625 0  0.375 0.625 0.0625  0.4166666666666667 0.625 0.0625  0.04166666666666666 0.6875 0  0.04166666666666666 0.6875 0.0625  0 0.6875 0  0 0.6875 0.0625  0.08333333333333333 0.6875 0  0.08333333333333333 0.6875 0.0625  0.125 0.6875 0  0.125 0.6875 0.0625  0.1666666666666667 0.6875 0  0.1666666666666667 0.6875 0.0625  0.2083333333333333 0.6875 0  0.2083333333333333 0.6875 0.0625  0.25 0.6875 0  0.25 0.6875 0.0625  0.2916666666666667 0.6875 0  0.2916666666666667 0.6875 0.0625  0.3333333333333333 0.6875 0  0.3333333333333333 0.6875 0.0625  0.375 0.6875 0  0.375 0.6875 0.0625  0.4166666666666667 0.6875 0.0625  0.4166666666666667 0.6875 0  0.04166666666666666 0.75 0  0.04166666666666666 0.75 0.0625  0 0.75 0  0 0.75 0.0625  0.08333333333333333 0.75 0  0.08333333333333333 0.75 0.0625  0.125 0.75 0  0.125 0.75 0.0625  0.1666666666666667 0.75 0  0.1666666666666667 0.75 0.0625  0.2083333333333333 0.75 0  0.2083333333333333 0.75 0.0625  0.25 0.75 0  0.25 0.75 0.0625  0.2916666666666667 0.75 0  0.2916666666666667 0.75 0.0625  0.3333333333333333 0.75 0  0.3333333333333333 0.75 0.0625  0.375 0.75 0  0.375 0.75 0.0625  0.4166666666666667 0.75 0  0.4166666666666667 0.75 0.0625  0.04166666666666666 0.8125 0  0.04166666666666666 0.8125 0.0625  0 0.8125 0  0 0.8125 0.0625  0.08333333333333333 0.8125 0  0.08333333333333333 0.8125 0.0625  0.125 0.8125 0  0.125 0.8125 0.0625  0.1666666666666667 0.8125 0  0.1666666666666667 0.8125 0.0625  0.2083333333333333 0.8125 0  0.2083333333333333 0.8125 0.0625  0.25 0.8125 0  0.25 0.8125 0.0625  0.2916666666666667 0.8125 0  0.2916666666666667 0.8125 0.0625  0.3333333333333333 0.8125 0  0.3333333333333333 0.8125 0.0625  0.375 0.8125 0  0.375 0.8125 0.0625  0.4166666666666667 0.8125 0  0.4166666666666667 0.8125 0.0625  0.4583333333333333 0.8125 0  0.4583333333333333 0.8125 0.0625  0.04166666666666666 0.875 0  0.04166666666666666 0.875 0.0625  0 0.875 0  0 0.875 0.0625  0.08333333333333333 0.875 0  0.08333333333333333 0.875 0.0625  0.125 0.875 0  0.125 0.875 0.0625  0.1666666666666667 0.875 0  0.1666666666666667 0.875 0.0625  0.2083333333333333 0.875 0  0.2083333333333333 0.875 0.0625  0.25 0.875 0  0.25 0.875 0.0625  0.2916666666666667 0.875 0  0.2916666666666667 0.875 0.0625  0.3333333333333333 0.875 0  0.3333333333333333 0.875 0.0625  0.375 0.875 0  0.375 0.875 0.0625  0.4166666666666667 0.875 0  0.4166666666666667 0.875 0.0625  0.4583333333333333 0.875 0  0.4583333333333333 0.875 0.0625  0.5 0.875 0.0625  0.04166666666666666 0.9375 0  0.04166666666666666 0.9375 0.0625  0 0.9375 0  0 0.9375 0.0625  0.08333333333333333 0.9375 0  0.08333333333333333 0.9375 0.0625  0.125 0.9375 0  0.125 0.9375 0.0625  0.1666666666666667 0.9375 0  0.1666666666666667 0.9375 0.0625  0.2083333333333333 0.9375 0  0.2083333333333333 0.9375 0.0625  0.25 0.9375 0  0.25 0.9375 0.0625  0.2916666666666667 0.9375 0  0.2916666666666667 0.9375 0.0625  0.3333333333333333 0.9375 0  0.3333333333333333 0.9375 0.0625  0.375 0.9375 0  0.375 0.9375 0.0625  0.4166666666666667 0.9375 0  0.4166666666666667 0.9375 0.0625  0.4583333333333333 0.9375 0  0.4583333333333333 0.9375 0.0625  0.5 0.9375 0.0625  0.5 0.9375 0  0.04166666666666666 1 0  0.04166666666666666 1 0.0625  0 1 0  0 1 0.0625  0.08333333333333333 1 0  0.08333333333333333 1 0.0625  0.125 1 0  0.125 1 0.0625  0.1666666666666667 1 0  0.1666666666666667 1 0.0625  0.2083333333333333 1 0  0.2083333333333333 1 0.0625  0.25 1 0  0.25 1 0.0625  0.2916666666666667 1 0  0.2916666666666667 1 0.0625  0.3333333333333333 1 0  0.3333333333333333 1 0.0625  0.375 1 0  0.375 1 0.0625  0.4166666666666667 1 0  0.4166666666666667 1 0.0625  0.4583333333333333 1 0  0.4583333333333333 1 0.0625  0.5 1 0  0.5 1 0.0625  0.5416666666666666 1 0.0625  0.04166666666666666 0.0625 0.125  0.04166666666666666 0 0.125  0 0 0.125  0 0.0625 0.125  0.08333333333333333 0.0625 0.125  0.08333333333333333 0 0.125  0.125 0.0625 0.125  0.125 0 0.125  0.1666666666666667 0.0625 0.125  0.1666666666666667 0 0.125  0.2083333333333333 0.0625 0.125  0.2083333333333333 0 0.125  0.25 0.0625 0.125  0.25 0 0.125  0.2916666666666667 0.0625 0.125  0.2916666666666667 0 0.125  0.3333333333333333 0.0625 0.125  0.3333333333333333 0 0.125  0.04166666666666666 0.125 0.125  0 0.125 0.125  0.08333333333333333 0.125 0.125  0.125 0.125 0.125  0.1666666666666667 0.125 0.125  0.2083333333333333 0.125 0.125  0.25 0.125 0.125  0.2916666666666667 0.125 0.125  0.3333333333333333 0.125 0.125  
[...]
<PointData  Vectors="f_10"> 
<DataArray  type="Float64"  Name="f_10"  NumberOfComponents="3" format="ascii">0.0000000000000000e+00 0.0000000000000000e+00 0.0000000000000000e+00  1.1388261691891700e-02 2.0550046812997470e-02 2.0562016189901514e-02  7.7787319257934138e-03 1.4014832534845969e-02 2.2220501232831064e-02  2.9866183636925712e-03 1.3502021311326322e-02 1.3514347031468263e-02  7.7767725425925190e-03 2.2206257742985312e-02 1.4026117168399733e-02  0.0000000000000000e+00 0.0000000000000000e+00 0.0000000000000000e+00  0.0000000000000000e+00 0.0000000000000000e+00 0.0000000000000000e+00  0.0000000000000000e+00 0.0000000000000000e+00 0.0000000000000000e+00  2.1768976172071734e-02 3.2038152437910659e-02 3.2064500166719079e-02  1.7601915774446225e-02 2.5668598414581842e-02 3.2893323847520167e-02  1.2833397070356259e-02 2.5681988626339445e-02 2.5708725653234565e-02  1.7597720183803164e-02 3.2864656780350283e-02 2.5693852782364097e-02  3.0810726356188960e-02 3.9818704015507127e-02 3.9859123469790189e-02  2.6537778970901652e-02 3.4067290029476262e-02 4.0293571755229497e-02  2.1927446880166040e-02 3.4102791299538644e-02 3.4143300855061294e-02  2.6532153172614575e-02 4.0251425664331451e-02 3.4106546755331889e-02  3.8762923178616703e-02 4.5713166119760999e-02 4.5766559686837148e-02  3.4524273208148590e-02 4.0533761724236485e-02 4.5990631918136626e-02  3.0085287232826781e-02 4.0525068828407278e-02 4.0578108783380536e-02  3.4517940424227241e-02 4.5936293544823953e-02 4.0586049094739535e-02  4.5865274450180300e-02 5.0542695957899807e-02 5.0607659243351394e-02  4.1710047885822707e-02 4.5836857504606039e-02 5.0706827113651570e-02  3.7430972982456082e-02 4.5786383638093960e-02 4.5850526418848125e-02  4.1703582987817053e-02 5.0641698522735180e-02 4.5900813228240675e-02  5.2295081796328455e-02 5.4736190237935897e-02 5.4811198774723950e-02  4.8238030964350115e-02 5.0419926832749713e-02 5.4831146966081011e-02  4.4099243593813488e-02 5.0337560301979278e-02 5.0411314979389409e-02  4.8231873520420576e-02 5.4756675684826617e-02 5.0494036977523367e-02  5.8175473912186290e-02 5.8538160099510746e-02 5.8621650856587382e-02  5.4217819226709214e-02 5.4549143549179772e-02 5.8589906991530716e-02  5.0199128611444932e-02 5.4443295393806969e-02 5.4525158744008616e-02  5.4212299038995680e-02 5.8507554482446628e-02 5.4631845034218994e-02  5.9723702750826023e-02 6.2031857518613703e-02 5.8479472177551645e-02  5.5813010642297232e-02 5.8266748460649789e-02 5.8355226766222665e-02  5.9728341073084619e-02 5.8389747301538876e-02 6.2120631039535648e-02  7.1439881323763993e-03 1.0914928658927021e-02 2.1754771034086903e-02  2.5643273691877211e-03 1.0863505500992913e-02 1.3526583791007031e-02  0.0000000000000000e+00 0.0000000000000000e+00 0.0000000000000000e+00  0.0000000000000000e+00 0.0000000000000000e+00 0.0000000000000000e+00  1.5264462471096809e-02 2.0645281713294647e-02 3.3842250015867215e-02  1.0163649196636326e-02 2.0311238393206692e-02 2.6365387319895465e-02  2.3524205356370072e-02 2.8908525192618151e-02 4.1119732713397174e-02  1.8635129171886422e-02 2.8683995385697922e-02 3.4750469379700256e-02  3.1210914156589716e-02 3.5608734558113711e-02 4.6603343601600511e-02  2.6588911074690233e-02 3.5432829935678298e-02 4.1054702256702526e-02  3.8280520156913932e-02 4.1220260381804319e-02 5.1146545387949910e-02  3.3890836786964536e-02 4.1062792397240137e-02 4.6204599508373377e-02  4.4790727292552603e-02 4.6108742448634631e-02 5.5142324849160838e-02  4.0587802509526698e-02 4.5956413612417209e-02 5.0665953875249622e-02  5.0808280250930954e-02 5.0521555096338197e-02 5.8808823140526087e-02  4.6752082267922990e-02 5.0367975296392191e-02 5.4703893672619248e-02  5.6389665534385951e-02 5.4622687208133285e-02 6.2276745931122715e-02  5.2449489317157996e-02 5.4464231536315542e-02 5.8479276515152313e-02  6.1578563541163540e-02 5.8520084614831158e-02 6.5626285799792655e-02  5.7733725585184865e-02 5.8354317091632725e-02 6.2092388710780051e-02  6.8496242819708082e-03 8.8450490652701164e-03 2.1592735587399280e-02  2.3690015225439872e-03 8.9649547956522063e-03 1.3489531832446685e-02  0.0000000000000000e+00 0.0000000000000000e+00 0.0000000000000000e+00  0.0000000000000000e+00 0.0000000000000000e+00 0.0000000000000000e+00  1.4272417423490792e-02 1.7208277052933599e-02 3.3737588530389342e-02  9.2286900936126032e-03 1.7045552168232371e-02 2.6338496879903112e-02  2.1665033684226957e-02 2.4630369756534064e-02 4.1587106585127750e-02  1.6657483627274282e-02 2.4347179669834972e-02 3.5151694328709404e-02  2.8864985974888863e-02 3.1153512307125618e-02 4.7126748800230205e-02  2.4115514360374020e-02 3.0914196830223187e-02 4.1519670992915203e-02  3.5673867659663627e-02 3.6836077888887056e-02 5.1605381843267684e-02  3.1183146125316828e-02 3.6636835960998967e-02 4.6625184898888304e-02  4.2062453880948827e-02 4.1890220092761291e-02 5.5519763690361469e-02  3.7786254240225907e-02 4.1715013568720039e-02 5.1019295062337891e-02  4.8046997769011515e-02 4.6502736212970686e-02 5.9116790304982819e-02  4.3937915858746943e-02 4.6338186845816490e-02 5.4995075412717316e-02  5.3653795267811277e-02 5.0812993362821079e-02 6.2535173122969773e-02  4.9672797346986014e-02 5.0649080822323334e-02 5.8722890317854694e-02  5.8908273110300467e-02 5.4919159735863386e-02 6.5856958511481087e-02  5.5027639969643473e-02 5.4748301007679440e-02 6.2306171014858747e-02  6.6706421170811651e-03 7.3168627288312110e-03 2.1469599176444906e-02  2.2488276881000831e-03 7.5082380170647684e-03 1.3434469852846711e-02  0.0000000000000000e+00 0.0000000000000000e+00 0.0000000000000000e+00  0.0000000000000000e+00 0.0000000000000000e+00 0.0000000000000000e+00  1.3697753531695162e-02 1.4554888193679359e-02 3.3580317854132846e-02  8.6985619904489785e-03 1.4538197564481426e-02 2.6238121018847697e-02  2.0609168815725352e-02 2.1203292612571176e-02 4.1548876748717940e-02  1.5602881467294979e-02 2.1045393939109515e-02 3.5145211199261207e-02  2.7327931822148276e-02 2.7253850861707063e-02 4.7334915540558825e-02  2.2507624845828557e-02 2.7059054252063727e-02 4.1721124897919917e-02  3.3821890274911393e-02 3.2777948692958664e-02 5.1886328926139175e-02  2.9244966288581694e-02 3.2607720080264066e-02 4.6898456602760492e-02  4.0027167928763929e-02 3.7840655375102249e-02 5.5803840693194530e-02  3.5670015281888068e-02 3.7693910782775175e-02 5.1299921164685292e-02  4.5923761858045718e-02 4.2547966854763052e-02 5.9384698760350275e-02  4.1743514309775999e-02 4.2412577811543575e-02 5.5261481200982350e-02  5.1511053397745900e-02 4.6997269884815542e-02 6.2789403961476489e-02  4.7467081806638119e-02 4.6860971561470663e-02 5.8974280984634385e-02  5.6795742892366427e-02 5.1264878390702637e-02 6.6109426985951319e-02  5.2856951117303187e-02 5.1117343918666944e-02 6.2551551500787131e-02  6.5502274449576467e-03 6.1051943082565405e-03 2.1317667458548968e-02  2.1695697042857709e-03 6.3273650746040796e-03 1.3344539645254812e-02  0.0000000000000000e+00 0.0000000000000000e+00 0.0000000000000000e+00  0.0000000000000000e+00 0.0000000000000000e+00 0.0000000000000000e+00  1.3331604679501612e-02 1.2363111016041749e-02 3.3359150805817243e-02  8.3615332078178055e-03 1.2458052846517043e-02 2.6069556572020224e-02  1.9943680214340443e-02 1.8283751848690515e-02 4.1355195943621428e-02  1.4940011006741092e-02 1.8263512233973257e-02 3.4991805708140637e-02  2.6355320692053010e-02 2.3833389818334171e-02 4.7235687062903486e-02  2.1505331604869022e-02 2.3763577482780691e-02 4.1651123221573112e-02  3.2571078643703594e-02 2.9054237477204890e-02 5.1917112249367611e-02  2.7929237844639299e-02 2.8975767534115418e-02 4.6945340756881400e-02  3.8582761169497444e-02 3.3994379077925282e-02 5.5905521469786335e-02  3.4147187772612893e-02 3.3924067673597617e-02 5.1414006993630211e-02  4.4363812264468470e-02 3.8695780429137350e-02 5.9525068014663729e-02  4.0102879018546117e-02 3.8627728322158106e-02 5.5411979811997310e-02  4.9898803330419732e-02 4.3210502749699314e-02 6.2957962156897668e-02  4.5775949711923787e-02 4.3133555611973080e-02 5.9149300408329879e-02  5.5180722083917305e-02 4.7586526602806947e-02 6.6308154360216628e-02  5.1165389620386394e-02 4.7489767568270419e-02 6.2751130838663655e-02  6.4647641924807497e-03 5.0766506962822786e-03 2.1116635975736663e-02  2.1163004227191654e-03 5.3119338307320747e-03 1.3211392610224006e-02  0.0000000000000000e+00 0.0000000000000000e+00 0.0000000000000000e+00  0.0000000000000000e+00 0.0000000000000000e+00 0.0000000000000000e+00  1.3088277255299402e-02 1.0443236133522877e-02 3.3055648677780484e-02  8.1390535230737183e-03 1.0627145757335071e-02 2.5826634633792964e-02  1.9509915512392770e-02 1.5671627850450301e-02 4.1033592102275813e-02  1.4505675779921387e-02 1.5783097041740052e-02 3.4720895747163485e-02  2.5721538311642124e-02 2.0716213518567037e-02 4.6956436703527719e-02  2.0845970415275649e-02 2.0788475101277154e-02 4.1414092402894169e-02  3.1746823712717455e-02 2.5596824458592585e-02 5.1715432184948534e-02  2.7055161919977859e-02 2.5651371652262427e-02 4.6778432768910534e-02  3.7594597270599148e-02 3.0337104846660558e-02 5.5796764463069776e-02  3.3087752925480683e-02 3.0380960306514132e-02 5.1331999275472308e-02  4.3258874592539930e-02 3.4957310065496253e-02 5.9491625427877490e-02  3.8915246750854102e-02 3.4988389822985244e-02 5.5399341614180676e-02  4.8724149586840092e-02 3.9474946832740304e-02 6.2988063254369508e-02  4.4513850136704877e-02 3.9484191058749139e-02 5.9194249683481193e-02  6.4007858041298937e-03 4.1423198480621875e-03 2.0856170155512249e-02  2.0804172929247528e-03 4.3842075995898138e-03 1.3030136976933945e-02  0.0000000000000000e+00 0.0000000000000000e+00 0.0000000000000000e+00  0.0000000000000000e+00 0.0000000000000000e+00 0.0000000000000000e+00  1.2921689240732934e-02 8.6669618677891625e-03 3.2655786747271369e-02  7.9903389817017351e-03 8.9280636299081412e-03 2.5502482701838126e-02  1.9222533261414019e-02 1.3228270514929806e-02 4.0582046412324616e-02  1.4216427763537581e-02 1.3465645856548296e-02 3.4335785333631928e-02  2.5304902295497946e-02 1.7774962282011628e-02 4.6515952986485580e-02  2.0404534156682422e-02 1.7993587082238457e-02 4.1030765792782663e-02  3.1200918270631737e-02 2.2305545932374948e-02 5.1327676189553431e-02  2.6462074274238027e-02 2.2507506532695974e-02 4.6439218523957555e-02  3.6928526325944566e-02 2.6820893850870473e-02 5.5486121008906805e-02  3.2355025979045687e-02 2.7001873051856855e-02 5.1061577036764283e-02  4.2490582669409784e-02 3.1319149118886162e-02 5.9269648473786109e-02  3.8064826169358482e-02 3.1471409562010298e-02 5.5208958635438073e-02  4.7880626346352317e-02 3.5797862777941218e-02 6.2852547880242610e-02  4.3578800513780644e-02 3.5912509693542760e-02 5.9082016560112270e-02  5.3087682648588569e-02 4.0255614741534863e-02 6.6347086232325422e-02  4.8887484758879836e-02 4.0323254095473958e-02 6.2812677115611587e-02  6.3492576410686336e-03 3.2371881853065897e-03 2.0525768744277900e-02  2.0561030343718614e-03 3.4861802028765343e-03 1.2795344418758505e-02  0.0000000000000000e+00 0.0000000000000000e+00 0.0000000000000000e+00  0.0000000000000000e+00 0.0000000000000000e+00 0.0000000000000000e+00  1.2802780667580888e-02 6.9395947013447829e-03 3.2144576662713836e-02  7.8896226169196219e-03 7.2754494486079917e-03 2.5088078526728841e-02  1.9027824470896154e-02 1.0851103061097538e-02 3.9989530673853552e-02  1.4020368425127798e-02 1.1213300300546644e-02 3.3830741732506664e-02  2.5026732047103924e-02 1.4913487073928132e-02 4.5912343530588817e-02  2.0101935518517605e-02 1.5280575531040239e-02 4.0503234586474895e-02  3.0833589744232785e-02 1.9100931818135790e-02 5.0761565114629266e-02  2.6047666794530806e-02 1.9455990003752099e-02 4.5937767013328364e-02  3.6470553166936384e-02 2.3389518416431863e-02 5.4989448297981552e-02  3.1830049263758396e-02 2.3716407209073212e-02 5.0618498557189195e-02  4.1946165594258879e-02 2.7755193173266184e-02 5.8861566764108149e-02  3.7437434508029402e-02 2.8039563375202692e-02 5.4843683199491865e-02  4.7259885952585713e-02 3.2176091119922777e-02 6.2542932737031237e-02  4.2863498679960720e-02 3.2406033825581229e-02 5.8804491017133080e-02  5.2406347043718091e-02 3.6634345933253196e-02 6.6138266980288740e-02  4.8104803933376537e-02 3.6800407028453670e-02 6.2625424185613635e-02  6.3035092463200274e-03 2.3082756296845977e-03 2.0111736361010765e-02  2.0389534677942938e-03 2.5711896247533057e-03 1.2499458489599909e-02  0.0000000000000000e+00 0.0000000000000000e+00 0.0000000000000000e+00  0.0000000000000000e+00 0.0000000000000000e+00 0.0000000000000000e+00  1.2711153807475123e-02 5.1857265758585387e-03 3.1503295277052062e-02  7.8183784799213934e-03 5.6027946446476212e-03 2.4571240191173509e-02  1.8887775906173274e-02 8.4607214925333275e-03 3.9239293709451881e-02  1.3880233562919340e-02 8.9526667003201107e-03 3.3194627207767655e-02  2.4829936829851709e-02 1.2058884243282228e-02 4.5134878706779520e-02  1.9880531102747418e-02 1.2577793707851335e-02 3.9825166552928837e-02  3.0569575709022745e-02 1.5922908528781966e-02 5.0013609046209606e-02  2.5734992607006957e-02 1.6433241353296567e-02 4.5273766580490316e-02  3.6130354658884603e-02 1.9999575189911422e-02 5.4309335031722208e-02  3.1420098403715326e-02 2.0473785869071923e-02 5.0007374076680197e-02  4.1524788626711266e-02 2.4240437830540286e-02 5.8273790487000356e-02  3.6929400726323981e-02 2.4657743606074936e-02 5.4310693006869450e-02  4.6757530546741449e-02 2.8603855371992667e-02 6.2061666300856758e-02  4.2262214919905457e-02 2.8949251223793267e-02 5.8364546405107805e-02  5.1828597503712610e-02 3.3056094433947018e-02 6.5770309418668099e-02  4.7420433559528311e-02 3.3319265812992112e-02 6.2285938402691712e-02  5.2407543762286748e-02 3.7745738034983184e-02 6.6149882928186632e-02  6.2581390872362176e-03 1.3063299948473488e-03 1.9596025168946232e-02  2.0251545714530827e-03 1.5980692246941601e-03 1.2132212756768086e-02  0.0000000000000000e+00 0.0000000000000000e+00 0.0000000000000000e+00  0.0000000000000000e+00 0.0000000000000000e+00 0.0000000000000000e+00  1.2630838575556224e-02 3.3405194720682995e-03 3.0708334005554103e-02  7.7614445858825883e-03 3.8549791521702492e-03 2.3936344022384780e-02  1.8771919903273898e-02 5.9937478725348272e-03 3.8309684829480217e-02  1.3765202282572485e-02 6.6268205403019163e-03 3.2412237301965956e-02  2.4667416255641873e-02 9.1568185408965348e-03 4.4167828710957119e-02  1.9691854528440786e-02 9.8329760880623632e-03 3.8985594877255905e-02  3.0344894818244064e-02 1.2729469880154764e-02 4.9075430755336456e-02  2.5458010088591124e-02 1.3395296879867841e-02 4.4442197156467168e-02  3.5828538786903848e-02 1.6622695262875319e-02 5.3444433915410969e-02  3.1043364167367526e-02 1.7240445397020181e-02 4.9229090153266264e-02  4.1134459061133652e-02 2.0760388824671738e-02 5.7510523126666081e-02  3.6446278010032140e-02 2.1303940129332427e-02 5.3615511391692634e-02  4.6272505182645848e-02 2.5079930312154147e-02 6.1416562114390429e-02  4.1671612177188941e-02 2.5531954002764572e-02 5.7770497535678464e-02  5.1248443635815141e-02 2.9531794956873674e-02 6.5251302464581079e-02  4.6726870597143477e-02 2.9881563128929013e-02 6.1802320934416864e-02  5.1620777688588554e-02 3.4320229292262486e-02 6.5779811865024962e-02  6.2082741230827000e-03 1.7898620803212994e-04 1.8955475052083150e-02  2.0106983927851399e-03 5.2692195272085367e-04 1.1680273743414725e-02  0.0000000000000000e+00 0.0000000000000000e+00 0.0000000000000000e+00  0.0000000000000000e+00 0.0000000000000000e+00 0.0000000000000000e+00  1.2547421172568100e-02 1.3442861051054856e-03 2.9730758779876829e-02  7.7041428055660459e-03 1.9840577726226308e-03 2.3164355823211611e-02  1.8651572634804263e-02 3.3994634614660725e-03 3.7174954650399800e-02  1.3645100201582088e-02 4.1915789481779793e-03 3.1465334993625783e-02  2.4493475102523546e-02 6.1697252941725258e-03 4.2992820870002744e-02  1.9487950991620859e-02 7.0101240811088379e-03 3.7971340809683445e-02  3.0096244497952177e-02 9.4961715385798798e-03 4.7937374710985532e-02  2.5150833638595715e-02 1.0315550373965032e-02 4.3436875094218966e-02  3.5485379945132699e-02 1.3246315271663223e-02 5.2393493872921727e-02  3.0617516983879323e-02 1.3999080199332511e-02 4.8284667393722364e-02  4.0681487649557056e-02 1.7312971344010934e-02 5.6577721114276079e-02  3.5891926806839260e-02 1.7969638942689568e-02 5.2765508408212598e-02  4.5700362197398904e-02 2.1611442357695392e-02 6.0619204085984056e-02  4.0985034880717669e-02 2.2153792833432481e-02 5.7034679335659470e-02  5.0554098828533560e-02 2.6076535012236952e-02 6.4596885279367910e-02  4.5910374616764248e-02 2.6494335277531901e-02 6.1190384296982009e-02  5.0682284224702591e-02 3.0948490924633729e-02 6.5294271760110198e-02  5.5252040575667537e-02 3.0659817954906309e-02 6.8558238709513525e-02  6.1493515332157484e-03 -1.1354263493878536e-03 1.8161293310419817e-02  1.9902876593657797e-03 -6.8387554708979341e-04 1.1126490642603192e-02  0.0000000000000000e+00 0.0000000000000000e+00 0.0000000000000000e+00  0.0000000000000000e+00 0.0000000000000000e+00 0.0000000000000000e+00  1.2445903879071671e-02 -8.5951678782394676e-04 2.8536877599687548e-02  7.6293168997474707e-03 -5.2139386886361987e-05 2.2233007650699334e-02  1.8494484125340705e-02 6.4052917827491624e-04 3.5807381032338916e-02  1.3484672361317129e-02 1.6153941887935201e-03 3.0334274485295871e-02  2.4255198048164884e-02 3.0782597575345146e-03 4.1592195583263165e-02  1.9212873338303692e-02 4.0898783967715140e-03 3.6770083369427171e-02  2.9749839217693877e-02 6.2172583362869113e-03 4.6592440205648705e-02  2.4737032598894610e-02 7.1850270259319277e-03 4.2254387078615396e-02  3.5008238476504611e-02 9.8741962034569752e-03 5.1159167643253498e-02  3.0047752888214926e-02 1.0748664680970925e-02 4.7179275450663638e-02  4.0057693965525477e-02 1.3908521374568302e-02 5.5486123736459704e-02  3.5156413096897245e-02 1.4659736539503252e-02 5.1773248157301992e-02  4.4921282303635644e-02 1.8213438574397420e-02 5.9686829544282768e-02  4.0081184618520893e-02 1.8824194078803792e-02 5.6175643110499683e-02  4.9618071328518067e-02 2.2709004266851601e-02 6.3829450387353201e-02  4.4842096591178486e-02 2.3170674966332089e-02 6.0473387352981585e-02  5.4163678276563779e-02 2.7336918120779451e-02 6.7954050095041379e-02  4.9459140661587589e-02 2.7646724596404899e-02 6.4720249602307184e-02  6.0791822905365625e-03 -2.7120871639678733e-03 1.7180211061322486e-02  1.9549715618955923e-03 -2.0796894515963203e-03 1.0447045852527169e-02  0.0000000000000000e+00 0.0000000000000000e+00 0.0000000000000000e+00  0.0000000000000000e+00 0.0000000000000000e+00 0.0000000000000000e+00  1.2310378685664966e-02 -3.3194481194718265e-03 2.7092774692244199e-02  7.5135852384821651e-03 -2.2875676917413369e-03 2.1117403623296942e-02  1.8259198442994402e-02 -2.2994417587985975e-03 3.4184153655719307e-02  1.3236674545597326e-02 -1.1156703265438033e-03 2.9002215981289006e-02  2.3881662889801883e-02 -1.1262004279961131e-04 3.9956443588050318e-02  1.8792308138614433e-02 1.0744798646720713e-03 3.5376725782506113e-02  2.9206945660848128e-02 2.9088516962648622e-03 4.5042898664905504e-02  2.4116487048767572e-02 4.0157941491211924e-03 4.0900810196460816e-02  3.4275066495704033e-02 6.5267825305546185e-03 4.9753049417264383e-02  2.9211979614999120e-02 7.5058770119796449e-03 4.5928019766407299e-02  3.9123302650776827e-02 1.0567902926211370e-02 5.4254381939533983e-02  3.4100649631783324e-02 1.1392184234439877e-02 5.0660641361101780e-02  4.3783454925919056e-02 1.4905394778505573e-02 5.8643461597816735e-02  3.8809185304819138e-02 1.5560672388563601e-02 5.5220389401227109e-02  4.8281777565708110e-02 1.9446867176052016e-02 6.2977379576435580e-02  4.3364262900913809e-02 1.9927121812403768e-02 5.9682361805954480e-02  5.2639594259722193e-02 2.4126193937524913e-02 6.7288929682992549e-02  4.7790935542432737e-02 2.4430711897492272e-02 6.4092383787829540e-02  5.6874100050128620e-02 2.8897864719921132e-02 7.1594298962030720e-02  5.2112299900863641e-02 2.9029392177812103e-02 6.8476229834848232e-02  6.0088847405107525e-03 -4.6309164522121580e-03 1.5985858270112115e-02  