<?xml version="1.0"?>
<VTKFile type="UnstructuredGrid"  version="0.1"  >
<UnstructuredGrid>
<Piece  NumberOfPoints="121" NumberOfCells="200">
<Points>
<DataArray  type="Float64"  NumberOfComponents="3"  format="ascii">0 0 0  0.1 0 0  0.2 0 0  0.3 0 0  0.4 0 0  0.5 0 0  0.6 0 0  0.7 0 0  0.8 0 0  0.9 0 0  1 0 0  0 0.1 0  0.1 0.1 0  0.2 0.1 0  0.3 0.1 0  0.4 0.1 0  0.5 0.1 0  0.6 0.1 0  0.7 0.1 0  0.8 0.1 0  0.9 0.1 0  1 0.1 0  0 0.2 0  0.1 0.2 0  0.2 0.2 0  0.3 0.2 0  0.4 0.2 0  0.5 0.2 0  0.6 0.2 0  0.7 0.2 0  0.8 0.2 0  0.9 0.2 0  1 0.2 0  0 0.3 0  0.1 0.3 0  0.2 0.3 0  0.3 0.3 0  0.4 0.3 0  0.5 0.3 0  0.6 0.3 0  0.7 0.3 0  0.8 0.3 0  0.9 0.3 0  1 0.3 0  0 0.4 0  0.1 0.4 0  0.2 0.4 0  0.3 0.4 0  0.4 0.4 0  0.5 0.4 0  0.6 0.4 0  0.7 0.4 0  0.8 0.4 0  0.9 0.4 0  1 0.4 0  0 0.5 0  0.1 0.5 0  0.2 0.5 0  0.3 0.5 0  0.4 0.5 0  0.5 0.5 0  0.6 0.5 0  0.7 0.5 0  0.8 0.5 0  0.9 0.5 0  1 0.5 0  0 0.6 0  0.1 0.6 0  0.2 0.6 0  0.3 0.6 0  0.4 0.6 0  0.5 0.6 0  0.6 0.6 0  0.7 0.6 0  0.8 0.6 0  0.9 0.6 0  1 0.6 0  0 0.7 0  0.1 0.7 0  0.2 0.7 0  0.3 0.7 0  0.4 0.7 0  0.5 0.7 0  0.6 0.7 0  0.7 0.7 0  0.8 0.7 0  0.9 0.7 0  1 0.7 0  0 0.8 0  0.1 0.8 0  0.2 0.8 0  0.3 0.8 0  0.4 0.8 0  0.5 0.8 0  0.6 0.8 0  0.7 0.8 0  0.8 0.8 0  0.9 0.8 0  1 0.8 0  0 0.9 0  0.1 0.9 0  0.2 0.9 0  0.3 0.9 0  0.4 0.9 0  0.5 0.9 0  0.6 0.9 0  0.7 0.9 0  0.8 0.9 0  0.9 0.9 0  1 0.9 0  0 1 0  0.1 1 0  0.2 1 0  0.3 1 0  0.4 1 0  0.5 1 0  0.6 1 0  0.7 1 0  0.8 1 0  0.9 1 0  1 1 0  </DataArray>
</Points>
<Cells>
<DataArray  type="UInt32"  Name="connectivity"  format="ascii">0 1 12  0 11 12  1 2 13  1 12 13  2 3 14  2 13 14  3 4 15  3 14 15  4 5 16  4 15 16  5 6 17  5 16 17  6 7 18  6 17 18  7 8 19  7 18 19  8 9 20  8 19 20  9 10 21  9 20 21  11 12 23  11 22 23  12 13 24  12 23 24  13 14 25  13 24 25  14 15 26  14 25 26  15 16 27  15 26 27  16 17 28  16 27 28  17 18 29  17 28 29  18 19 30  18 29 30  19 20 31  19 30 31  20 21 32  20 31 32  22 23 34  22 33 34  23 24 35  23 34 35  24 25 36  24 35 36  25 26 37  25 36 37  26 27 38  26 37 38  27 28 39  27 38 39  28 29 40  28 39 40  29 30 41  29 40 41  30 31 42  30 41 42  31 32 43  31 42 43  33 34 45  33 44 45  34 35 46  34 45 46  35 36 47  35 46 47  36 37 48  36 47 48  37 38 49  37 48 49  38 39 50  38 49 50  39 40 51  39 50 51  40 41 52  40 51 52  41 42 53  41 52 53  42 43 54  42 53 54  44 45 56  44 55 56  45 46 57  45 56 57  46 47 58  46 57 58  47 48 59  47 58 59  48 49 60  48 59 60  49 50 61  49 60 61  50 51 62  50 61 62  51 52 63  51 62 63  52 53 64  52 63 64  53 54 65  53 64 65  55 56 67  55 66 67  56 57 68  56 67 68  57 58 69  57 68 69  58 59 70  58 69 70  59 60 71  59 70 71  60 61 72  60 71 72  61 62 73  61 72 73  62 63 74  62 73 74  63 64 75  63 74 75  64 65 76  64 75 76  66 67 78  66 77 78  67 68 79  67 78 79  68 69 80  68 79 80  69 70 81  69 80 81  70 71 82  70 81 82  71 72 83  71 82 83  72 73 84  72 83 84  73 74 85  73 84 85  74 75 86  74 85 86  75 76 87  75 86 87  77 78 89  77 88 89  78 79 90  78 89 90  79 80 91  79 90 91  80 81 92  80 91 92  81 82 93  81 92 93  82 83 94  82 93 94  83 84 95  83 94 95  84 85 96  84 95 96  85 86 97  85 96 97  86 87 98  86 97 98  88 89 100  88 99 100  89 90 101  89 100 101  90 91 102  90 101 102  91 92 103  91 102 103  92 93 104  92 103 104  93 94 105  93 104 105  94 95 106  94 105 106  95 96 107  95 106 107  96 97 108  96 107 108  97 98 109  97 108 109  99 100 111  99 110 111  100 101 112  100 111 112  101 102 113  101 112 113  102 103 114  102 113 114  103 104 115  103 114 115  104 105 116  104 115 116  105 106 117  105 116 117  106 107 118  106 117 118  107 108 119  107 118 119  108 109 120  108 119 120  </DataArray>
<DataArray  type="UInt32"  Name="offsets"  format="ascii">3 6 9 12 15 18 21 24 27 30 33 36 39 42 45 48 51 54 57 60 63 66 69 72 75 78 81 84 87 90 93 96 99 102 105 108 111 114 117 120 123 126 129 132 135 138 141 144 147 150 153 156 159 162 165 168 171 174 177 180 183 186 189 192 195 198 201 204 207 210 213 216 219 222 225 228 231 234 237 240 243 246 249 252 255 258 261 264 267 270 273 276 279 282 285 288 291 294 297 300 303 306 309 312 315 318 321 324 327 330 333 336 339 342 345 348 351 354 357 360 363 366 369 372 375 378 381 384 387 390 393 396 399 402 405 408 411 414 417 420 423 426 429 432 435 438 441 444 447 450 453 456 459 462 465 468 471 474 477 480 483 486 489 492 495 498 501 504 507 510 513 516 519 522 525 528 531 534 537 540 543 546 549 552 555 558 561 564 567 570 573 576 579 582 585 588 591 594 597 600 </DataArray>
<DataArray  type="UInt8"  Name="types"  format="ascii">5 5 5 5 5 5 5 5 5 5 5 5 5 5 5 5 5 5 5 5 5 5 5 5 5 5 5 5 5 5 5 5 5 5 5 5 5 5 5 5 5 5 5 5 5 5 5 5 5 5 5 5 5 5 5 5 5 5 5 5 5 5 5 5 5 5 5 5 5 5 5 5 5 5 5 5 5 5 5 5 5 5 5 5 5 5 5 5 5 5 5 5 5 5 5 5 5 5 5 5 5 5 5 5 5 5 5 5 5 5 5 5 5 5 5 5 5 5 5 5 5 5 5 5 5 5 5 5 5 5 5 5 5 5 5 5 5 5 5 5 5 5 5 5 5 5 5 5 5 5 5 5 5 5 5 5 5 5 5 5 5 5 5 5 5 5 5 5 5 5 5 5 5 5 5 5 5 5 5 5 5 5 5 5 5 5 5 5 5 5 5 5 5 5 5 5 5 5 5 5 </DataArray>
</Cells>
<PointData  Vectors="f_20"> 
<DataArray  type="Float64"  Name="f_20"  NumberOfComponents="3" format="ascii">0.0000000000000000e+00 0.0000000000000000e+00 0.0000000000000000e+00  1.0000000000000002e-03 0.0000000000000000e+00 0.0000000000000000e+00  4.0000000000000010e-03 0.0000000000000000e+00 0.0000000000000000e+00  8.9999999999999993e-03 0.0000000000000000e+00 0.0000000000000000e+00  1.6000000000000004e-02 0.0000000000000000e+00 0.0000000000000000e+00  2.5000000000000001e-02 0.0000000000000000e+00 0.0000000000000000e+00  3.5999999999999997e-02 0.0000000000000000e+00 0.0000000000000000e+00  4.8999999999999995e-02 0.0000000000000000e+00 0.0000000000000000e+00  6.4000000000000015e-02 0.0000000000000000e+00 0.0000000000000000e+00  8.1000000000000016e-02 0.0000000000000000e+00 0.0000000000000000e+00  1.0000000000000001e-01 0.0000000000000000e+00 0.0000000000000000e+00  0.0000000000000000e+00 0.0000000000000000e+00 0.0000000000000000e+00  9.9961501645030762e-04 -9.0571018740055793e-08 0.0000000000000000e+00  3.9994933950873940e-03 5.0694217312890249e-08 0.0000000000000000e+00  8.9994267538304629e-03 1.7777342537028624e-07 0.0000000000000000e+00  1.5999396366301304e-02 2.8656452351471888e-07 0.0000000000000000e+00  2.4999389983625765e-02 3.7484497800446619e-07 0.0000000000000000e+00  3.5999401272302382e-02 4.3922078839497357e-07 0.0000000000000000e+00  4.8999432855680668e-02 4.7339486909859454e-07 0.0000000000000000e+00  6.3999502688910262e-02 4.6433746777733083e-07 0.0000000000000000e+00  8.0999657443251633e-02 3.7664053368463862e-07 0.0000000000000000e+00  1.0000000000000001e-01 0.0000000000000000e+00 0.0000000000000000e+00  0.0000000000000000e+00 0.0000000000000000e+00 0.0000000000000000e+00  9.9954417206224401e-04 4.5599417421490305e-08 0.0000000000000000e+00  3.9991849378746757e-03 1.1884885774153300e-07 0.0000000000000000e+00  8.9990521272824281e-03 3.2046476276015173e-07 0.0000000000000000e+00  1.5999007685328814e-02 5.0247726568345751e-07 0.0000000000000000e+00  2.4999026360716905e-02 6.5504002952801558e-07 0.0000000000000000e+00  3.5999092021946288e-02 7.6728092640439057e-07 0.0000000000000000e+00  4.8999199297364932e-02 8.2209215858981601e-07 0.0000000000000000e+00  6.3999358893199132e-02 7.8893241076401527e-07 0.0000000000000000e+00  8.0999606054250869e-02 6.0144391392139452e-07 0.0000000000000000e+00  1.0000000000000001e-01 0.0000000000000000e+00 0.0000000000000000e+00  0.0000000000000000e+00 0.0000000000000000e+00 0.0000000000000000e+00  9.9947832783929742e-04 1.7783119787725196e-07 0.0000000000000000e+00  3.9990621431711601e-03 2.9264131327389912e-07 0.0000000000000000e+00  8.9987935564746213e-03 4.3379475917419161e-07 0.0000000000000000e+00  1.5998728195123456e-02 6.4431734770894524e-07 0.0000000000000000e+00  2.4998769462376533e-02 8.3000033260467568e-07 0.0000000000000000e+00  3.5998888854022700e-02 9.7041550072960873e-07 0.0000000000000000e+00  4.8999068331873480e-02 1.0374071791513876e-06 0.0000000000000000e+00  6.3999303268684221e-02 9.8515338749681268e-07 0.0000000000000000e+00  8.0999606827711623e-02 7.2664965142376144e-07 0.0000000000000000e+00  1.0000000000000001e-01 0.0000000000000000e+00 0.0000000000000000e+00  0.0000000000000000e+00 0.0000000000000000e+00 0.0000000000000000e+00  9.9941666071195708e-04 3.0185892369025497e-07 0.0000000000000000e+00  3.9989513222197090e-03 4.4220766186003477e-07 0.0000000000000000e+00  8.9986498236540990e-03 5.7017112464928392e-07 0.0000000000000000e+00  1.5998520467319272e-02 7.2013552014727064e-07 0.0000000000000000e+00  2.4998576575908354e-02 9.0552047140889085e-07 0.0000000000000000e+00  3.5998742443131733e-02 1.0542404927411737e-06 0.0000000000000000e+00  4.8998985503740489e-02 1.1279105468857252e-06 0.0000000000000000e+00  6.3999283310728336e-02 1.0685946248129824e-06 0.0000000000000000e+00  8.0999625138455586e-02 7.7596522432644355e-07 0.0000000000000000e+00  1.0000000000000001e-01 0.0000000000000000e+00 0.0000000000000000e+00  0.0000000000000000e+00 0.0000000000000000e+00 0.0000000000000000e+00  9.9936071140490127e-04 4.1368451307008795e-07 0.0000000000000000e+00  3.9988546320580158e-03 5.6086478240136777e-07 0.0000000000000000e+00  8.9985287268751595e-03 6.5918144275014179e-07 0.0000000000000000e+00  1.5998389344520948e-02 7.6378771135511877e-07 0.0000000000000000e+00  2.4998429089785570e-02 8.8951619911187136e-07 0.0000000000000000e+00  3.5998633057985910e-02 1.0265172846346096e-06 0.0000000000000000e+00  4.8998930970042855e-02 1.1023386267106657e-06 0.0000000000000000e+00  6.3999281881012282e-02 1.0499112040285629e-06 0.0000000000000000e+00  8.0999651328918981e-02 7.6065548457152178e-07 0.0000000000000000e+00  1.0000000000000001e-01 0.0000000000000000e+00 0.0000000000000000e+00  0.0000000000000000e+00 0.0000000000000000e+00 0.0000000000000000e+00  9.9931521687002083e-04 5.0581005242091177e-07 0.0000000000000000e+00  3.9987829460025638e-03 6.4008984157128679e-07 0.0000000000000000e+00  8.9984445762300060e-03 6.9507408659519771e-07 0.0000000000000000e+00  1.5998300914714284e-02 7.4376175501394010e-07 0.0000000000000000e+00  2.4998342593261957e-02 8.0940532030032512e-07 0.0000000000000000e+00  3.5998554398580927e-02 8.9540326514013104e-07 0.0000000000000000e+00  4.8998897548995897e-02 9.6854641513596069e-07 0.0000000000000000e+00  6.3999292712538153e-02 9.3675795894489091e-07 0.0000000000000000e+00  8.0999682136783421e-02 6.8695913171030322e-07 0.0000000000000000e+00  1.0000000000000001e-01 0.0000000000000000e+00 0.0000000000000000e+00  0.0000000000000000e+00 0.0000000000000000e+00 0.0000000000000000e+00  9.9928995658332470e-04 5.6225358516311798e-07 0.0000000000000000e+00  3.9987592484220401e-03 6.6393722931437496e-07 0.0000000000000000e+00  8.9984303493602109e-03 6.6852480150586767e-07 0.0000000000000000e+00  1.5998293170264580e-02 6.5976446014003271e-07 0.0000000000000000e+00  2.4998334185870243e-02 6.6493264818031747e-07 0.0000000000000000e+00  3.5998538324155303e-02 6.9125632670311381e-07 0.0000000000000000e+00  4.8998887398409595e-02 7.3549633717761787e-07 0.0000000000000000e+00  6.3999315411749746e-02 7.3608531872355273e-07 0.0000000000000000e+00  8.0999716881657913e-02 5.5917386152075228e-07 0.0000000000000000e+00  1.0000000000000001e-01 0.0000000000000000e+00 0.0000000000000000e+00  0.0000000000000000e+00 0.0000000000000000e+00 0.0000000000000000e+00  9.9930589235013067e-04 5.5052916158748730e-07 0.0000000000000000e+00  3.9988290127796313e-03 6.0224945643624332e-07 0.0000000000000000e+00  8.9985492340340801e-03 5.6164544826155272e-07 0.0000000000000000e+00  1.5998439352351915e-02 5.0869391287603116e-07 0.0000000000000000e+00  2.4998480226617256e-02 4.6803215822603136e-07 0.0000000000000000e+00  3.5998656766464451e-02 4.4701814637126734e-07 0.0000000000000000e+00  4.8998954440748761e-02 4.4531211044262076e-07 0.0000000000000000e+00  6.3999356016336342e-02 4.5750858142187081e-07 0.0000000000000000e+00  8.0999757052651125e-02 3.8199075849298804e-07 0.0000000000000000e+00  1.0000000000000001e-01 0.0000000000000000e+00 0.0000000000000000e+00  0.0000000000000000e+00 0.0000000000000000e+00 0.0000000000000000e+00  9.9942202983150600e-04 4.0544036760352825e-07 0.0000000000000000e+00  3.9990978487394720e-03 4.0227450694901746e-07 0.0000000000000000e+00  8.9989322396440800e-03 3.4492285274752364e-07 0.0000000000000000e+00  1.5998881192937825e-02 2.8423664515042708e-07 0.0000000000000000e+00  2.4998923329444121e-02 2.3374509526714485e-07 0.0000000000000000e+00  3.5999046254830816e-02 1.9721320178532736e-07 0.0000000000000000e+00  4.8999240885532758e-02 1.7476280148275717e-07 0.0000000000000000e+00  6.3999498134877000e-02 1.6444862723644561e-07 0.0000000000000000e+00  8.0999806515994158e-02 1.6328124204949907e-07 0.0000000000000000e+00  1.0000000000000001e-01 0.0000000000000000e+00 0.0000000000000000e+00  0.0000000000000000e+00 0.0000000000000000e+00 0.0000000000000000e+00  1.0000000000000002e-03 0.0000000000000000e+00 0.0000000000000000e+00  4.0000000000000010e-03 0.0000000000000000e+00 0.0000000000000000e+00  8.9999999999999993e-03 0.0000000000000000e+00 0.0000000000000000e+00  1.6000000000000004e-02 0.0000000000000000e+00 0.0000000000000000e+00  2.5000000000000001e-02 0.0000000000000000e+00 0.0000000000000000e+00  3.5999999999999997e-02 0.0000000000000000e+00 0.0000000000000000e+00  4.8999999999999995e-02 0.0000000000000000e+00 0.0000000000000000e+00  6.4000000000000015e-02 0.0000000000000000e+00 0.0000000000000000e+00  8.1000000000000016e-02 0.0000000000000000e+00 0.0000000000000000e+00  1.0000000000000001e-01 0.0000000000000000e+00 0.0000000000000000e+00  </DataArray> 
</PointData> 
</Piece>
</UnstructuredGrid>
</VTKFile>