<?xml version="1.0"?>
<VTKFile type="UnstructuredGrid"  version="0.1"  >
<UnstructuredGrid>
<Piece  NumberOfPoints="2022" NumberOfCells="9237">
<Points>
<DataArray  type="Float64"  NumberOfComponents="3"  format="ascii">0 0 0.1875  0.04166666666666666 0 0.1875  0.04166666666666666 0 0.25  0.04166666666666666 0.0625 0.25  0 0 0.25  0 0.0625 0.25  0.08333333333333333 0 0.1875  0.08333333333333333 0.0625 0.1875  0.08333333333333333 0.0625 0.25  0.08333333333333333 0 0.25  0.125 0 0.1875  0.125 0.0625 0.1875  0.125 0.0625 0.25  0.125 0 0.25  0.1666666666666667 0 0.1875  0.1666666666666667 0 0.25  0.1666666666666667 0.0625 0.25  0.2083333333333333 0 0.25  0.2083333333333333 0.0625 0.25  0.25 0 0.1875  0.2916666666666667 0 0.1875  0.2916666666666667 0 0.25  0.2916666666666667 0.0625 0.25  0.25 0 0.25  0.3333333333333333 0 0.25  0.3333333333333333 0.0625 0.25  0.125 0.125 0.25  0.1666666666666667 0.125 0.25  0.04166666666666666 0.0625 0.3125  0.04166666666666666 0 0.3125  0 0 0.3125  0 0.0625 0.3125  0.08333333333333333 0.0625 0.3125  0.08333333333333333 0 0.3125  0.125 0.0625 0.3125  0.125 0 0.3125  0.1666666666666667 0.0625 0.3125  0.1666666666666667 0 0.3125  0.2083333333333333 0.0625 0.3125  0.2083333333333333 0 0.3125  0.25 0.0625 0.25  0.25 0.0625 0.3125  0.25 0 0.3125  0.2916666666666667 0.0625 0.3125  0.2916666666666667 0 0.3125  0.3333333333333333 0.0625 0.3125  0.3333333333333333 0 0.3125  0.04166666666666666 0.125 0.3125  0 0.125 0.3125  0 0.125 0.25  0.08333333333333333 0.125 0.3125  0.125 0.125 0.3125  0.1666666666666667 0.125 0.3125  0.2083333333333333 0.125 0.3125  0.25 0.125 0.3125  0.2916666666666667 0.125 0.3125  0.3333333333333333 0.125 0.3125  0.375 0.125 0.3125  0.04166666666666666 0.1875 0.3125  0 0.1875 0.3125  0.1666666666666667 0.1875 0.3125  0.2083333333333333 0.1875 0.3125  0.04166666666666666 0.0625 0.375  0.04166666666666666 0 0.375  0 0 0.375  0 0.0625 0.375  0.08333333333333333 0.0625 0.375  0.08333333333333333 0 0.375  0.125 0.0625 0.375  0.125 0 0.375  0.1666666666666667 0.0625 0.375  0.1666666666666667 0 0.375  0.2083333333333333 0.0625 0.375  0.2083333333333333 0 0.375  0.25 0.0625 0.375  0.25 0 0.375  0.2916666666666667 0.0625 0.375  0.2916666666666667 0 0.375  0.3333333333333333 0.0625 0.375  0.3333333333333333 0 0.375  0.04166666666666666 0.125 0.375  0 0.125 0.375  0.08333333333333333 0.125 0.375  0.125 0.125 0.375  0.1666666666666667 0.125 0.375  0.2083333333333333 0.125 0.375  0.25 0.125 0.375  0.2916666666666667 0.125 0.375  0.3333333333333333 0.125 0.375  0.375 0.125 0.375  0.04166666666666666 0.1875 0.375  0 0.1875 0.375  0.08333333333333333 0.1875 0.375  0.125 0.1875 0.375  0.1666666666666667 0.1875 0.375  0.2083333333333333 0.1875 0.375  0.25 0.1875 0.375  0.2916666666666667 0.1875 0.375  0.3333333333333333 0.1875 0.375  0.375 0.1875 0.375  0.04166666666666666 0.25 0.375  0 0.25 0.375  0 0.25 0.3125  0.08333333333333333 0.25 0.375  0.04166666666666666 0.3125 0.375  0 0.3125 0.375  0.04166666666666666 0.0625 0.4375  0.04166666666666666 0 0.4375  0 0 0.4375  0 0.0625 0.4375  0.08333333333333333 0.0625 0.4375  0.08333333333333333 0 0.4375  0.125 0.0625 0.4375  0.125 0 0.4375  0.1666666666666667 0.0625 0.4375  0.1666666666666667 0 0.4375  0.2083333333333333 0.0625 0.4375  0.2083333333333333 0 0.4375  0.25 0.0625 0.4375  0.25 0 0.4375  0.2916666666666667 0.0625 0.4375  0.2916666666666667 0 0.4375  0.3333333333333333 0.0625 0.4375  0.3333333333333333 0 0.4375  0.04166666666666666 0.125 0.4375  0 0.125 0.4375  0.08333333333333333 0.125 0.4375  0.125 0.125 0.4375  0.1666666666666667 0.125 0.4375  0.2083333333333333 0.125 0.4375  0.25 0.125 0.4375  0.2916666666666667 0.125 0.4375  0.3333333333333333 0.125 0.4375  0.375 0.125 0.4375  0.04166666666666666 0.1875 0.4375  0 0.1875 0.4375  0.08333333333333333 0.1875 0.4375  0.125 0.1875 0.4375  0.1666666666666667 0.1875 0.4375  0.2083333333333333 0.1875 0.4375  0.25 0.1875 0.4375  0.2916666666666667 0.1875 0.4375  0.3333333333333333 0.1875 0.4375  0.375 0.1875 0.4375  0.4166666666666667 0.1875 0.4375  0.04166666666666666 0.25 0.4375  0 0.25 0.4375  0.08333333333333333 0.25 0.4375  0.125 0.25 0.4375  0.1666666666666667 0.25 0.375  0.1666666666666667 0.25 0.4375  0.2083333333333333 0.25 0.375  0.2083333333333333 0.25 0.4375  0.25 0.25 0.4375  0.2916666666666667 0.25 0.4375  0.3333333333333333 0.25 0.4375  0.375 0.25 0.4375  0.4166666666666667 0.25 0.4375  0.04166666666666666 0.3125 0.4375  0 0.3125 0.4375  0.08333333333333333 0.3125 0.375  0.08333333333333333 0.3125 0.4375  0.125 0.3125 0.4375  0.2083333333333333 0.3125 0.4375  0.1666666666666667 0.3125 0.4375  0.25 0.3125 0.4375  0.04166666666666666 0.375 0.375  0.04166666666666666 0.375 0.4375  0 0.375 0.375  0 0.375 0.4375  0.08333333333333333 0.375 0.4375  0.125 0.375 0.4375  0.04166666666666666 0.4375 0.375  0.04166666666666666 0.4375 0.4375  0 0.4375 0.375  0 0.4375 0.4375  0.08333333333333333 0.4375 0.4375  0.04166666666666666 0.5 0.4375  0 0.5 0.4375  0 0.5 0.375  0.08333333333333333 0.5 0.4375  0.04166666666666666 0.5625 0.4375  0 0.5625 0.4375  0.04166666666666666 0.0625 0.5  0.04166666666666666 0 0.5  0 0 0.5  0 0.0625 0.5  0.08333333333333333 0.0625 0.5  0.08333333333333333 0 0.5  0.125 0.0625 0.5  0.125 0 0.5  0.1666666666666667 0.0625 0.5  0.1666666666666667 0 0.5  0.2083333333333333 0.0625 0.5  0.2083333333333333 0 0.5  0.25 0.0625 0.5  0.25 0 0.5  0.2916666666666667 0.0625 0.5  0.2916666666666667 0 0.5  0.3333333333333333 0.0625 0.5  0.3333333333333333 0 0.5  0.04166666666666666 0.125 0.5  0 0.125 0.5  0.08333333333333333 0.125 0.5  0.125 0.125 0.5  0.1666666666666667 0.125 0.5  0.2083333333333333 0.125 0.5  0.25 0.125 0.5  0.2916666666666667 0.125 0.5  0.3333333333333333 0.125 0.5  0.375 0.125 0.5  0.04166666666666666 0.1875 0.5  0 0.1875 0.5  0.08333333333333333 0.1875 0.5  0.125 0.1875 0.5  0.1666666666666667 0.1875 0.5  0.2083333333333333 0.1875 0.5  0.25 0.1875 0.5  0.2916666666666667 0.1875 0.5  0.3333333333333333 0.1875 0.5  0.375 0.1875 0.5  0.4166666666666667 0.1875 0.5  0.04166666666666666 0.25 0.5  0 0.25 0.5  0.08333333333333333 0.25 0.5  0.125 0.25 0.5  0.1666666666666667 0.25 0.5  0.2083333333333333 0.25 0.5  0.25 0.25 0.5  0.2916666666666667 0.25 0.5  0.3333333333333333 0.25 0.5  0.375 0.25 0.5  0.4166666666666667 0.25 0.5  0.04166666666666666 0.3125 0.5  0 0.3125 0.5  0.08333333333333333 0.3125 0.5  0.125 0.3125 0.5  0.1666666666666667 0.3125 0.5  0.2083333333333333 0.3125 0.5  0.25 0.3125 0.5  0.2916666666666667 0.3125 0.4375  0.2916666666666667 0.3125 0.5  0.3333333333333333 0.3125 0.4375  0.3333333333333333 0.3125 0.5  0.375 0.3125 0.4375  0.375 0.3125 0.5  0.4166666666666667 0.3125 0.4375  0.4166666666666667 0.3125 0.5  0.04166666666666666 0.375 0.5  0 0.375 0.5  0.08333333333333333 0.375 0.5  0.125 0.375 0.5  0.1666666666666667 0.375 0.4375  0.1666666666666667 0.375 0.5  0.2083333333333333 0.375 0.4375  0.2083333333333333 0.375 0.5  0.25 0.375 0.4375  0.25 0.375 0.5  0.2916666666666667 0.375 0.4375  0.2916666666666667 0.375 0.5  0.3333333333333333 0.375 0.5  0.375 0.375 0.5  0.4166666666666667 0.375 0.5  0.4583333333333333 0.375 0.5  0.04166666666666666 0.4375 0.5  0 0.4375 0.5  0.08333333333333333 0.4375 0.5  0.125 0.4375 0.4375  0.125 0.4375 0.5  0.1666666666666667 0.4375 0.5  0.2083333333333333 0.4375 0.5  0.25 0.4375 0.5  0.2916666666666667 0.4375 0.5  0.3333333333333333 0.4375 0.5  0.04166666666666666 0.5 0.5  0 0.5 0.5  0.08333333333333333 0.5 0.5  0.125 0.5 0.4375  0.125 0.5 0.5  0.1666666666666667 0.5 0.5  0.04166666666666666 0.5625 0.5  0 0.5625 0.5  0.08333333333333333 0.5625 0.5  0.125 0.5625 0.5  0.1666666666666667 0.5625 0.5  0.04166666666666666 0.625 0.5  0 0.625 0.5  0.08333333333333333 0.625 0.5  0.04166666666666666 0.0625 0.5625  0.04166666666666666 0 0.5625  0 0 0.5625  0 0.0625 0.5625  0.08333333333333333 0.0625 0.5625  0.08333333333333333 0 0.5625  0.125 0.0625 0.5625  0.125 0 0.5625  0.1666666666666667 0.0625 0.5625  0.1666666666666667 0 0.5625  0.2083333333333333 0.0625 0.5625  0.2083333333333333 0 0.5625  0.25 0.0625 0.5625  0.25 0 0.5625  0.2916666666666667 0.0625 0.5625  0.2916666666666667 0 0.5625  0.3333333333333333 0.0625 0.5625  0.3333333333333333 0 0.5625  0.375 0 0.5625  0.375 0.0625 0.5625  0.04166666666666666 0.125 0.5625  0 0.125 0.5625  0.08333333333333333 0.125 0.5625  0.125 0.125 0.5625  0.1666666666666667 0.125 0.5625  0.2083333333333333 0.125 0.5625  0.25 0.125 0.5625  0.2916666666666667 0.125 0.5625  0.3333333333333333 0.125 0.5625  0.375 0.125 0.5625  0.04166666666666666 0.1875 0.5625  0 0.1875 0.5625  0.08333333333333333 0.1875 0.5625  0.125 0.1875 0.5625  0.1666666666666667 0.1875 0.5625  0.2083333333333333 0.1875 0.5625  0.25 0.1875 0.5625  0.2916666666666667 0.1875 0.5625  0.3333333333333333 0.1875 0.5625  0.375 0.1875 0.5625  0.4166666666666667 0.1875 0.5625  0.04166666666666666 0.25 0.5625  0 0.25 0.5625  0.08333333333333333 0.25 0.5625  0.125 0.25 0.5625  0.1666666666666667 0.25 0.5625  0.2083333333333333 0.25 0.5625  0.25 0.25 0.5625  0.2916666666666667 0.25 0.5625  0.3333333333333333 0.25 0.5625  0.375 0.25 0.5625  0.4166666666666667 0.25 0.5625  0.4583333333333333 0.25 0.5625  0.04166666666666666 0.3125 0.5625  0 0.3125 0.5625  0.08333333333333333 0.3125 0.5625  0.125 0.3125 0.5625  0.1666666666666667 0.3125 0.5625  0.2083333333333333 0.3125 0.5625  0.25 0.3125 0.5625  0.2916666666666667 0.3125 0.5625  0.3333333333333333 0.3125 0.5625  0.375 0.3125 0.5625  0.4166666666666667 0.3125 0.5625  0.4583333333333333 0.3125 0.5625  0.04166666666666666 0.375 0.5625  0 0.375 0.5625  0.08333333333333333 0.375 0.5625  0.125 0.375 0.5625  0.1666666666666667 0.375 0.5625  0.2083333333333333 0.375 0.5625  0.25 0.375 0.5625  0.2916666666666667 0.375 0.5625  0.3333333333333333 0.375 0.5625  0.375 0.375 0.5625  0.4166666666666667 0.375 0.5625  0.4583333333333333 0.375 0.5625  0.04166666666666666 0.4375 0.5625  0 0.4375 0.5625  0.08333333333333333 0.4375 0.5625  0.125 0.4375 0.5625  0.1666666666666667 0.4375 0.5625  0.20
[...]
<PointData  Scalars="f_18"> 
<DataArray  type="Float64"  Name="f_18"  format="ascii">1.4100000000000000e+02  1.5940419310302727e+02  1.5940419310302727e+02  1.5940419310302727e+02  1.4100000000000000e+02  1.4100000000000000e+02  1.7749348535945543e+02  1.7749348535945543e+02  1.7749348535945543e+02  1.7749348535945543e+02  1.9495836396347767e+02  1.9495836396347767e+02  1.9495836396347767e+02  1.9495836396347767e+02  2.1150000000000000e+02  2.1150000000000000e+02  2.1150000000000000e+02  2.2683536149022962e+02  2.2683536149022962e+02  2.4070205614730321e+02  2.5286282098106415e+02  2.5286282098106415e+02  2.5286282098106415e+02  2.4070205614730321e+02  2.6310958193360585e+02  2.6310958193360585e+02  1.9495836396347767e+02  2.1150000000000000e+02  1.5940419310302727e+02  1.5940419310302727e+02  1.4100000000000000e+02  1.4100000000000000e+02  1.7749348535945543e+02  1.7749348535945543e+02  1.9495836396347767e+02  1.9495836396347767e+02  2.1150000000000000e+02  2.1150000000000000e+02  2.2683536149022962e+02  2.2683536149022962e+02  2.4070205614730321e+02  2.4070205614730321e+02  2.4070205614730321e+02  2.5286282098106415e+02  2.5286282098106415e+02  2.6310958193360585e+02  2.6310958193360585e+02  1.5940419310302727e+02  1.4100000000000000e+02  1.4100000000000000e+02  1.7749348535945543e+02  1.9495836396347767e+02  2.1150000000000000e+02  2.2683536149022962e+02  2.4070205614730321e+02  2.5286282098106415e+02  2.6310958193360585e+02  2.7126701408409144e+02  1.5940419310302727e+02  1.4100000000000000e+02  2.1150000000000000e+02  2.2683536149022962e+02  1.5940419310302727e+02  1.5940419310302727e+02  1.4100000000000000e+02  1.4100000000000000e+02  1.7749348535945543e+02  1.7749348535945543e+02  1.9495836396347767e+02  1.9495836396347767e+02  2.1150000000000000e+02  2.1150000000000000e+02  2.2683536149022962e+02  2.2683536149022962e+02  2.4070205614730321e+02  2.4070205614730321e+02  2.5286282098106415e+02  2.5286282098106415e+02  2.6310958193360585e+02  2.6310958193360585e+02  1.5940419310302727e+02  1.4100000000000000e+02  1.7749348535945543e+02  1.9495836396347767e+02  2.1150000000000000e+02  2.2683536149022962e+02  2.4070205614730321e+02  2.5286282098106415e+02  2.6310958193360585e+02  2.7126701408409144e+02  1.5940419310302727e+02  1.4100000000000000e+02  1.7749348535945543e+02  1.9495836396347767e+02  2.1150000000000000e+02  2.2683536149022962e+02  2.4070205614730321e+02  2.5286282098106415e+02  2.6310958193360585e+02  2.7126701408409144e+02  1.5940419310302727e+02  1.4100000000000000e+02  1.4100000000000000e+02  1.7749348535945543e+02  1.5940419310302727e+02  1.4100000000000000e+02  1.5940419310302727e+02  1.5940419310302727e+02  1.4100000000000000e+02  1.4100000000000000e+02  1.7749348535945543e+02  1.7749348535945543e+02  1.9495836396347767e+02  1.9495836396347767e+02  2.1150000000000000e+02  2.1150000000000000e+02  2.2683536149022962e+02  2.2683536149022962e+02  2.4070205614730321e+02  2.4070205614730321e+02  2.5286282098106415e+02  2.5286282098106415e+02  2.6310958193360585e+02  2.6310958193360585e+02  1.5940419310302727e+02  1.4100000000000000e+02  1.7749348535945543e+02  1.9495836396347767e+02  2.1150000000000000e+02  2.2683536149022962e+02  2.4070205614730321e+02  2.5286282098106415e+02  2.6310958193360585e+02  2.7126701408409144e+02  1.5940419310302727e+02  1.4100000000000000e+02  1.7749348535945543e+02  1.9495836396347767e+02  2.1150000000000000e+02  2.2683536149022962e+02  2.4070205614730321e+02  2.5286282098106415e+02  2.6310958193360585e+02  2.7126701408409144e+02  2.7719554150675867e+02  1.5940419310302727e+02  1.4100000000000000e+02  1.7749348535945543e+02  1.9495836396347767e+02  2.1150000000000000e+02  2.1150000000000000e+02  2.2683536149022962e+02  2.2683536149022962e+02  2.4070205614730321e+02  2.5286282098106415e+02  2.6310958193360585e+02  2.7126701408409144e+02  2.7719554150675867e+02  1.5940419310302727e+02  1.4100000000000000e+02  1.7749348535945543e+02  1.7749348535945543e+02  1.9495836396347767e+02  2.2683536149022962e+02  2.1150000000000000e+02  2.4070205614730321e+02  1.5940419310302727e+02  1.5940419310302727e+02  1.4100000000000000e+02  1.4100000000000000e+02  1.7749348535945543e+02  1.9495836396347767e+02  1.5940419310302727e+02  1.5940419310302727e+02  1.4100000000000000e+02  1.4100000000000000e+02  1.7749348535945543e+02  1.5940419310302727e+02  1.4100000000000000e+02  1.4100000000000000e+02  1.7749348535945543e+02  1.5940419310302727e+02  1.4100000000000000e+02  1.5940419310302727e+02  1.5940419310302727e+02  1.4100000000000000e+02  1.4100000000000000e+02  1.7749348535945543e+02  1.7749348535945543e+02  1.9495836396347767e+02  1.9495836396347767e+02  2.1150000000000000e+02  2.1150000000000000e+02  2.2683536149022962e+02  2.2683536149022962e+02  2.4070205614730321e+02  2.4070205614730321e+02  2.5286282098106415e+02  2.5286282098106415e+02  2.6310958193360585e+02  2.6310958193360585e+02  1.5940419310302727e+02  1.4100000000000000e+02  1.7749348535945543e+02  1.9495836396347767e+02  2.1150000000000000e+02  2.2683536149022962e+02  2.4070205614730321e+02  2.5286282098106415e+02  2.6310958193360585e+02  2.7126701408409144e+02  1.5940419310302727e+02  1.4100000000000000e+02  1.7749348535945543e+02  1.9495836396347767e+02  2.1150000000000000e+02  2.2683536149022962e+02  2.4070205614730321e+02  2.5286282098106415e+02  2.6310958193360585e+02  2.7126701408409144e+02  2.7719554150675867e+02  1.5940419310302727e+02  1.4100000000000000e+02  1.7749348535945543e+02  1.9495836396347767e+02  2.1150000000000000e+02  2.2683536149022962e+02  2.4070205614730321e+02  2.5286282098106415e+02  2.6310958193360585e+02  2.7126701408409144e+02  2.7719554150675867e+02  1.5940419310302727e+02  1.4100000000000000e+02  1.7749348535945543e+02  1.9495836396347767e+02  2.1150000000000000e+02  2.2683536149022962e+02  2.4070205614730321e+02  2.5286282098106415e+02  2.5286282098106415e+02  2.6310958193360585e+02  2.6310958193360585e+02  2.7126701408409144e+02  2.7126701408409144e+02  2.7719554150675867e+02  2.7719554150675867e+02  1.5940419310302727e+02  1.4100000000000000e+02  1.7749348535945543e+02  1.9495836396347767e+02  2.1150000000000000e+02  2.1150000000000000e+02  2.2683536149022962e+02  2.2683536149022962e+02  2.4070205614730321e+02  2.4070205614730321e+02  2.5286282098106415e+02  2.5286282098106415e+02  2.6310958193360585e+02  2.7126701408409144e+02  2.7719554150675867e+02  2.8079372545370722e+02  1.5940419310302727e+02  1.4100000000000000e+02  1.7749348535945543e+02  1.9495836396347767e+02  1.9495836396347767e+02  2.1150000000000000e+02  2.2683536149022962e+02  2.4070205614730321e+02  2.5286282098106415e+02  2.6310958193360585e+02  1.5940419310302727e+02  1.4100000000000000e+02  1.7749348535945543e+02  1.9495836396347767e+02  1.9495836396347767e+02  2.1150000000000000e+02  1.5940419310302727e+02  1.4100000000000000e+02  1.7749348535945543e+02  1.9495836396347767e+02  2.1150000000000000e+02  1.5940419310302727e+02  1.4100000000000000e+02  1.7749348535945543e+02  1.5940419310302727e+02  1.5940419310302727e+02  1.4100000000000000e+02  1.4100000000000000e+02  1.7749348535945543e+02  1.7749348535945543e+02  1.9495836396347767e+02  1.9495836396347767e+02  2.1150000000000000e+02  2.1150000000000000e+02  2.2683536149022962e+02  2.2683536149022962e+02  2.4070205614730321e+02  2.4070205614730321e+02  2.5286282098106415e+02  2.5286282098106415e+02  2.6310958193360585e+02  2.6310958193360585e+02  2.7126701408409144e+02  2.7126701408409144e+02  1.5940419310302727e+02  1.4100000000000000e+02  1.7749348535945543e+02  1.9495836396347767e+02  2.1150000000000000e+02  2.2683536149022962e+02  2.4070205614730321e+02  2.5286282098106415e+02  2.6310958193360585e+02  2.7126701408409144e+02  1.5940419310302727e+02  1.4100000000000000e+02  1.7749348535945543e+02  1.9495836396347767e+02  2.1150000000000000e+02  2.2683536149022962e+02  2.4070205614730321e+02  2.5286282098106415e+02  2.6310958193360585e+02  2.7126701408409144e+02  2.7719554150675867e+02  1.5940419310302727e+02  1.4100000000000000e+02  1.7749348535945543e+02  1.9495836396347767e+02  2.1150000000000000e+02  2.2683536149022962e+02  2.4070205614730321e+02  2.5286282098106415e+02  2.6310958193360585e+02  2.7126701408409144e+02  2.7719554150675867e+02  2.8079372545370722e+02  1.5940419310302727e+02  1.4100000000000000e+02  1.7749348535945543e+02  1.9495836396347767e+02  2.1150000000000000e+02  2.2683536149022962e+02  2.4070205614730321e+02  2.5286282098106415e+02  2.6310958193360585e+02  2.7126701408409144e+02  2.7719554150675867e+02  2.8079372545370722e+02  1.5940419310302727e+02  1.4100000000000000e+02  1.7749348535945543e+02  1.9495836396347767e+02  2.1150000000000000e+02  2.2683536149022962e+02  2.4070205614730321e+02  2.5286282098106415e+02  2.6310958193360585e+02  2.7126701408409144e+02  2.7719554150675867e+02  2.8079372545370722e+02  1.5940419310302727e+02  1.4100000000000000e+02  1.7749348535945543e+02  1.9495836396347767e+02  2.1150000000000000e+02  2.2683536149022962e+02  2.4070205614730321e+02  2.5286282098106415e+02  2.6310958193360585e+02  2.7126701408409144e+02  2.7126701408409144e+02  2.7719554150675867e+02  2.7719554150675867e+02  2.8079372545370722e+02  2.8079372545370722e+02  2.8200000000000000e+02  1.5940419310302727e+02  1.4100000000000000e+02  1.7749348535945543e+02  1.9495836396347767e+02  2.1150000000000000e+02  2.2683536149022962e+02  2.4070205614730321e+02  2.5286282098106415e+02  2.6310958193360585e+02  2.7126701408409144e+02  2.7719554150675867e+02  2.8079372545370722e+02  2.8200000000000000e+02  1.5940419310302727e+02  1.4100000000000000e+02  1.7749348535945543e+02  1.9495836396347767e+02  2.1150000000000000e+02  2.2683536149022962e+02  1.5940419310302727e+02  1.4100000000000000e+02  1.7749348535945543e+02  1.9495836396347767e+02  2.1150000000000000e+02  2.2683536149022962e+02  1.5940419310302727e+02  1.5940419310302727e+02  1.4100000000000000e+02  1.4100000000000000e+02  1.7749348535945543e+02  1.7749348535945543e+02  1.9495836396347767e+02  1.5940419310302727e+02  1.4100000000000000e+02  1.4100000000000000e+02  1.7749348535945543e+02  1.9495836396347767e+02  1.5940419310302727e+02  1.4100000000000000e+02  1.4100000000000000e+02  1.5940419310302727e+02  1.4100000000000000e+02  1.5940419310302727e+02  1.5940419310302727e+02  1.4100000000000000e+02  1.4100000000000000e+02  1.7749348535945543e+02  1.7749348535945543e+02  1.9495836396347767e+02  1.9495836396347767e+02  2.1150000000000000e+02  2.1150000000000000e+02  2.2683536149022962e+02  2.2683536149022962e+02  2.4070205614730321e+02  2.4070205614730321e+02  2.5286282098106415e+02  2.5286282098106415e+02  2.6310958193360585e+02  2.6310958193360585e+02  2.7126701408409144e+02  2.7126701408409144e+02  1.5940419310302727e+02  1.4100000000000000e+02  1.7749348535945543e+02  1.9495836396347767e+02  2.1150000000000000e+02  2.2683536149022962e+02  2.4070205614730321e+02  2.5286282098106415e+02  2.6310958193360585e+02  2.7126701408409144e+02  1.5940419310302727e+02  1.4100000000000000e+02  1.7749348535945543e+02  1.9495836396347767e+02  2.1150000000000000e+02  2.2683536149022962e+02  2.4070205614730321e+02  2.5286282098106415e+02  2.6310958193360585e+02  2.7126701408409144e+02  2.7719554150675867e+02  1.5940419310302727e+02  1.4100000000000000e+02  1.7749348535945543e+02  1.9495836396347767e+02  2.1150000000000000e+02  2.2683536149022962e+02  2.4070205614730321e+02  2.5286282098106415e+02  2.6310958193360585e+02  2.7126701408409144e+02  2.7719554150675867e+02  2.8079372545370722e+02  1.5940419310302727e+02  1.4100000000000000e+02  1.7749348535945543e+02  1.9495836396347767e+02  2.1150000000000000e+02  2.2683536149022962e+02  2.4070205614730321e+02  2.5286282098106415e+02  2.6310958193360585e+02  2.7126701408409144e+02  2.7719554150675867e+02  2.8079372545370722e+02  1.5940419310302727e+02  1.4100000000000000e+02  1.7749348535945543e+02  1.9495836396347767e+02  2.1150000000000000e+02  2.2683536149022962e+02  2.4070205614730321e+02  2.5286282098106415e+02  2.6310958193360585e+02  2.7126701408409144e+02  2.7719554150675867e+02  2.8079372545370722e+02  1.5940419310302727e+02  1.4100000000000000e+02  1.7749348535945543e+02  1.9495836396347767e+02  2.1150000000000000e+02  2.2683536149022962e+02  2.4070205614730321e+02  2.5286282098106415e+02  2.6310958193360585e+02  2.7126701408409144e+02  2.7719554150675867e+02  2.8079372545370722e+02  2.8200000000000000e+02  1.5940419310302727e+02  1.4100000000000000e+02  1.7749348535945543e+02  1.9495836396347767e+02  2.1150000000000000e+02  2.2683536149022962e+02  2.4070205614730321e+02  2.5286282098106415e+02  2.6310958193360585e+02  2.7126701408409144e+02  2.7719554150675867e+02  2.8079372545370722e+02  2.8200000000000000e+02  2.8079372545370728e+02  1.5940419310302727e+02  1.4100000000000000e+02  1.7749348535945543e+02  1.9495836396347767e+02  2.1150000000000000e+02  2.2683536149022962e+02  2.4070205614730321e+02  2.5286282098106415e+02  2.6310958193360585e+02  2.7126701408409144e+02  2.7126701408409144e+02  2.6310958193360585e+02  2.7719554150675867e+02  2.7719554150675867e+02  2.8079372545370722e+02  2.8079372545370722e+02  2.8200000000000000e+02  2.8200000000000000e+02  2.8079372545370728e+02  1.5940419310302727e+02  1.4100000000000000e+02  1.7749348535945543e+02  1.9495836396347767e+02  2.1150000000000000e+02  2.2683536149022962e+02  2.4070205614730321e+02  2.7126701408409144e+02  2.7719554150675867e+02  2.8079372545370722e+02  2.8200000000000000e+02  2.8079372545370728e+02  1.5940419310302727e+02  1.4100000000000000e+02  1.7749348535945543e+02  1.9495836396347767e+02  2.1150000000000000e+02  2.2683536149022962e+02  2.4070205614730321e+02  1.5940419310302727e+02  1.4100000000000000e+02  1.7749348535945543e+02  1.9495836396347767e+02  2.1150000000000000e+02  1.5940419310302727e+02  1.4100000000000000e+02  1.7749348535945543e+02  1.9495836396347767e+02  2.1150000000000000e+02  1.5940419310302727e+02  1.4100000000000000e+02  1.7749348535945543e+02  1.5940419310302727e+02  1.5940419310302727e+02  1.4100000000000000e+02  1.4100000000000000e+02  1.7749348535945543e+02  1.5940419310302727e+02  1.4100000000000000e+02  1.7749348535945543e+02  1.5940419310302727e+02  1.5940419310302727e+02  1.4100000000000000e+02  1.4100000000000000e+02  1.7749348535945543e+02  1.7749348535945543e+02  1.9495836396347767e+02  1.9495836396347767e+02  2.1150000000000000e+02  2.1150000000000000e+02  2.2683536149022962e+02  2.2683536149022962e+02  2.4070205614730321e+02  2.4070205614730321e+02  2.5286282098106415e+02  2.5286282098106415e+02  2.6310958193360585e+02  2.6310958193360585e+02  2.7126701408409144e+02  2.7126701408409144e+02  2.7719554150675867e+02  2.7719554150675867e+02  1.5940419310302727e+02  1.4100000000000000e+02  1.7749348535945543e+02  1.9495836396347767e+02  2.1150000000000000e+02  2.2683536149022962e+02  2.4070205614730321e+02  2.5286282098106415e+02  2.6310958193360585e+02  2.7126701408409144e+02  2.7719554150675867e+02  1.5940419310302727e+02  1.4100000000000000e+02  1.7749348535945543e+02  1.9495836396347767e+02  2.1150000000000000e+02  2.2683536149022962e+02  2.4070205614730321e+02  2.5286282098106415e+02  2.6310958193360585e+02  2.7126701408409144e+02  2.7719554150675867e+02  1.5940419310302727e+02  1.4100000000000000e+02  1.7749348535945543e+02  1.9495836396347767e+02  2.1150000000000000e+02  2.2683536149022962e+02  2.4070205614730321e+02  2.5286282098106415e+02  2.6310958193360585e+02  2.7126701408409144e+02  2.7719554150675867e+02  2.8079372545370722e+02  1.5940419310302727e+02  1.4100000000000000e+02  1.7749348535945543e+02  1.9495836396347767e+02  2.1150000000000000e+02  2.2683536149022962e+02  2.4070205614730321e+02  2.5286282098106415e+02  2.6310958193360585e+02  2.7126701408409144e+02  2.7719554150675867e+02  2.8079372545370722e+02  1.5940419310302727e+02  1.4100000000000000e+02  1.7749348535945543e+02  1.9495836396347767e+02  2.1150000000000000e+02  2.2683536149022962e+02  2.4070205614730321e+02  2.5286282098106415e+02  2.6310958193360585e+02  2.7126701408409144e+02  2.7719554150675867e+02  2.8079372545370722e+02  1.5940419310302727e+02  1.4100000000000000e+02  1.7749348535945543e+02  1.9495836396347767e+02  2.1150000000000000e+02  2.2683536149022962e+02  2.4070205614730321e+02  2.5286282098106415e+02  2.6310958193360585e+02  2.7126701408409144e+02  2.7719554150675867e+02  2.8079372545370722e+02  2.8200000000000000e+02  1.5940419310302727e+02  1.4100000000000000e+02  1.7749348535945543e+02  1.9495836396347767e+02  2.1150000000000000e+02  2.2683536149022962e+02  2.4070205614730321e+02  2.5286282098106415e+02  2.6310958193360585e+02  2.7126701408409144e+02  2.7719554150675867e+02  2.8079372545370722e+02  2.8200000000000000e+02  2.8079372545370728e+02  1.5940419310302727e+02  1.4100000000000000e+02  1.7749348535945543e+02  1.9495836396347767e+02  2.1150000000000000e+02  2.2683536149022962e+02  2.4070205614730321e+02  2.5286282098106415e+02  2.6310958193360585e+02  2.7126701408409144e+02  2.7719554150675867e+02  2.8079372545370722e+02  2.8200000000000000e+02  2.8079372545370728e+02  1.5940419310302727e+02  1.4100000000000000e+02  1.7749348535945543e+02  1.9495836396347767e+02  2.1150000000000000e+02  2.2683536149022962e+02  2.4070205614730321e+02  2.5286282098106415e+02  2.5286282098106415e+02  2.6310958193360585e+02  2.6310958193360585e+02  2.7126701408409144e+02  2.7719554150675867e+02  2.8079372545370722e+02  2.8200000000000000e+02  2.8079372545370728e+02  2.7719554150675867e+02  1.5940419310302727e+02  1.4100000000000000e+02  1.7749348535945543e+02  1.9495836396347767e+02  2.1150000000000000e+02  2.2683536149022962e+02  2.4070205614730321e+02  2.5286282098106415e+02  2.6310958193360585e+02  2.7126701408409144e+02  2.7126701408409144e+02  2.6310958193360585e+02  2.7719554150675867e+02  2.7719554150675867e+02  2.8079372545370722e+02  2.8079372545370722e+02  2.8200000000000000e+02  2.8200000000000000e+02  2.8079372545370728e+02  2.8079372545370728e+02  2.7719554150675867e+02  1.5940419310302727e+02  1.4100000000000000e+02  1.7749348535945543e+02  1.9495836396347767e+02  2.1150000000000000e+02  2.2683536149022962e+02  2.2683536149022962e+02  2.4070205614730321e+02  2.4070205614730321e+02  2.5286282098106415e+02  2.7126701408409144e+02  2.7126701408409144e+02  2.7719554150675867e+02  2.7719554150675867e+02  2.8079372545370722e+02  2.8079372545370722e+02  2.8200000000000000e+02  2.8079372545370728e+02  2.7719554150675867e+02  1.5940419310302727e+02  1.4100000000000000e+02  1.7749348535945543e+02  1.9495836396347767e+02  2.1150000000000000e+02  2.2683536149022962e+02  2.4070205614730321e+02  2.5286282098106415e+02  2.7719554150675867e+02  2.8079372545370722e+02  2.8200000000000000e+02  1.5940419310302727e+02  1.4100000000000000e+02  1.7749348535945543e+02  1.9495836396347767e+02  1.9495836396347767e+02  2.1150000000000000e+02  2.2683536149022962e+02  1.5940419310302727e+02  1.4100000000000000e+02  1.7749348535945543e+02  1.9495836396347767e+02  2.1150000000000000e+02  1.5940419310302727e+02  1.4100000000000000e+02  1.7749348535945543e+02  1.9495836396347767e+02  1.5940419310302727e+02  1.5940419310302727e+02  1.4100000000000000e+02  1.4100000000000000e+02  1.7749348535945543e+02  1.7749348535945543e+02  1.9495836396347767e+02  1.9495836396347767e+02  2.1150000000000000e+02  2.1150000000000000e+02  2.2683536149022962e+02  2.2683536149022962e+02  2.4070205614730321e+02  2.4070205614730321e+02  2.5286282098106415e+02  2.5286282098106415e+02  2.6310958193360585e+02  2.6310958193360585e+02  2.7126701408409144e+02  2.7126701408409144e+02  2.7719554150675867e+02  2.7719554150675867e+02  1.5940419310302727e+02  1.4100000000000000e+02  1.7749348535945543e+02  1.9495836396347767e+02  2.1150000000000000e+02  2.2683536149022962e+02  2.4070205614730321e+02  2.5286282098106415e+02  2.6310958193360585e+02  2.7126701408409144e+02  2.7719554150675867e+02  2.8079372545370722e+02  1.5940419310302727e+02  1.4100000000000000e+02  1.7749348535945543e+02  1.9495836396347767e+02  2.1150000000000000e