<?xml version="1.0"?>
<VTKFile type="UnstructuredGrid"  version="0.1"  >
<UnstructuredGrid>
<Piece  NumberOfPoints="2005" NumberOfCells="9191">
<Points>
<DataArray  type="Float64"  NumberOfComponents="3"  format="ascii">0.2916666666666667 0 0  0.3333333333333333 0 0  0.3333333333333333 0.0625 0  0.3333333333333333 0.0625 0.0625  0.3333333333333333 0 0.0625  0.375 0 0  0.375 0.0625 0  0.375 0.0625 0.0625  0.375 0 0.0625  0.4166666666666667 0 0  0.4166666666666667 0.0625 0  0.4166666666666667 0.0625 0.0625  0.4166666666666667 0 0.0625  0.4583333333333333 0 0  0.4583333333333333 0.0625 0  0.4583333333333333 0.0625 0.0625  0.4583333333333333 0 0.0625  0.5 0 0  0.5 0.0625 0  0.5 0.0625 0.0625  0.5 0 0.0625  0.5416666666666666 0 0  0.5416666666666666 0.0625 0  0.5416666666666666 0.0625 0.0625  0.5416666666666666 0 0.0625  0.5833333333333334 0 0  0.5833333333333334 0.0625 0  0.5833333333333334 0.0625 0.0625  0.5833333333333334 0 0.0625  0.625 0 0  0.625 0.0625 0  0.625 0.0625 0.0625  0.625 0 0.0625  0.6666666666666666 0 0  0.6666666666666666 0.0625 0  0.6666666666666666 0.0625 0.0625  0.6666666666666666 0 0.0625  0.7083333333333334 0 0  0.7083333333333334 0.0625 0  0.7083333333333334 0.0625 0.0625  0.7083333333333334 0 0.0625  0.75 0 0  0.75 0.0625 0  0.75 0.0625 0.0625  0.75 0 0.0625  0.7916666666666666 0 0  0.7916666666666666 0.0625 0  0.7916666666666666 0.0625 0.0625  0.7916666666666666 0 0.0625  0.8333333333333334 0 0  0.8333333333333334 0.0625 0  0.8333333333333334 0.0625 0.0625  0.8333333333333334 0 0.0625  0.875 0 0  0.875 0.0625 0  0.875 0.0625 0.0625  0.875 0 0.0625  0.9166666666666666 0 0  0.9166666666666666 0.0625 0  0.9166666666666666 0.0625 0.0625  0.9166666666666666 0 0.0625  0.9583333333333334 0 0  0.9583333333333334 0.0625 0  0.9583333333333334 0.0625 0.0625  0.9583333333333334 0 0.0625  1 0 0  1 0.0625 0  1 0.0625 0.0625  1 0 0.0625  0.375 0.125 0  0.375 0.125 0.0625  0.4166666666666667 0.125 0  0.4166666666666667 0.125 0.0625  0.4583333333333333 0.125 0  0.4583333333333333 0.125 0.0625  0.5 0.125 0  0.5 0.125 0.0625  0.5416666666666666 0.125 0  0.5416666666666666 0.125 0.0625  0.5833333333333334 0.125 0  0.5833333333333334 0.125 0.0625  0.625 0.125 0  0.625 0.125 0.0625  0.6666666666666666 0.125 0  0.6666666666666666 0.125 0.0625  0.7083333333333334 0.125 0  0.7083333333333334 0.125 0.0625  0.75 0.125 0  0.75 0.125 0.0625  0.7916666666666666 0.125 0  0.7916666666666666 0.125 0.0625  0.8333333333333334 0.125 0  0.8333333333333334 0.125 0.0625  0.875 0.125 0  0.875 0.125 0.0625  0.9166666666666666 0.125 0  0.9166666666666666 0.125 0.0625  0.9583333333333334 0.125 0  0.9583333333333334 0.125 0.0625  1 0.125 0  1 0.125 0.0625  0.4166666666666667 0.1875 0.0625  0.4583333333333333 0.1875 0.0625  0.5 0.1875 0.0625  0.5416666666666666 0.1875 0.0625  0.5833333333333334 0.1875 0.0625  0.625 0.1875 0  0.625 0.1875 0.0625  0.6666666666666666 0.1875 0  0.6666666666666666 0.1875 0.0625  0.7083333333333334 0.1875 0  0.7083333333333334 0.1875 0.0625  0.75 0.1875 0  0.75 0.1875 0.0625  0.7916666666666666 0.1875 0  0.7916666666666666 0.1875 0.0625  0.8333333333333334 0.1875 0  0.8333333333333334 0.1875 0.0625  0.875 0.1875 0  0.875 0.1875 0.0625  0.9166666666666666 0.1875 0  0.9166666666666666 0.1875 0.0625  0.9583333333333334 0.1875 0  0.9583333333333334 0.1875 0.0625  1 0.1875 0  1 0.1875 0.0625  0.6666666666666666 0.25 0  0.6666666666666666 0.25 0.0625  0.7083333333333334 0.25 0  0.7083333333333334 0.25 0.0625  0.75 0.25 0  0.75 0.25 0.0625  0.7916666666666666 0.25 0  0.7916666666666666 0.25 0.0625  0.8333333333333334 0.25 0  0.8333333333333334 0.25 0.0625  0.875 0.25 0  0.875 0.25 0.0625  0.9166666666666666 0.25 0  0.9166666666666666 0.25 0.0625  0.9583333333333334 0.25 0  0.9583333333333334 0.25 0.0625  1 0.25 0  1 0.25 0.0625  0.7916666666666666 0.3125 0.0625  0.8333333333333334 0.3125 0  0.8333333333333334 0.3125 0.0625  0.875 0.3125 0  0.875 0.3125 0.0625  0.9166666666666666 0.3125 0  0.9166666666666666 0.3125 0.0625  0.9583333333333334 0.3125 0  0.9583333333333334 0.3125 0.0625  1 0.3125 0  1 0.3125 0.0625  0.875 0.375 0.0625  0.9166666666666666 0.375 0  0.9166666666666666 0.375 0.0625  0.9583333333333334 0.375 0  0.9583333333333334 0.375 0.0625  1 0.375 0  1 0.375 0.0625  1 0.4375 0  1 0.4375 0.0625  0.375 0.0625 0.125  0.375 0 0.125  0.3333333333333333 0 0.125  0.3333333333333333 0.0625 0.125  0.4166666666666667 0.0625 0.125  0.4166666666666667 0 0.125  0.4583333333333333 0.0625 0.125  0.4583333333333333 0 0.125  0.5 0.0625 0.125  0.5 0 0.125  0.5416666666666666 0.0625 0.125  0.5416666666666666 0 0.125  0.5833333333333334 0.0625 0.125  0.5833333333333334 0 0.125  0.625 0.0625 0.125  0.625 0 0.125  0.6666666666666666 0.0625 0.125  0.6666666666666666 0 0.125  0.7083333333333334 0.0625 0.125  0.7083333333333334 0 0.125  0.75 0.0625 0.125  0.75 0 0.125  0.7916666666666666 0.0625 0.125  0.7916666666666666 0 0.125  0.8333333333333334 0.0625 0.125  0.8333333333333334 0 0.125  0.875 0.0625 0.125  0.875 0 0.125  0.9166666666666666 0.0625 0.125  0.9166666666666666 0 0.125  0.9583333333333334 0.0625 0.125  0.9583333333333334 0 0.125  1 0.0625 0.125  1 0 0.125  0.375 0.125 0.125  0.4166666666666667 0.125 0.125  0.4583333333333333 0.125 0.125  0.5 0.125 0.125  0.5416666666666666 0.125 0.125  0.5833333333333334 0.125 0.125  0.625 0.125 0.125  0.6666666666666666 0.125 0.125  0.7083333333333334 0.125 0.125  0.75 0.125 0.125  0.7916666666666666 0.125 0.125  0.8333333333333334 0.125 0.125  0.875 0.125 0.125  0.9166666666666666 0.125 0.125  0.9583333333333334 0.125 0.125  1 0.125 0.125  0.4166666666666667 0.1875 0.125  0.375 0.1875 0.125  0.4583333333333333 0.1875 0.125  0.5 0.1875 0.125  0.5416666666666666 0.1875 0.125  0.5833333333333334 0.1875 0.125  0.625 0.1875 0.125  0.6666666666666666 0.1875 0.125  0.7083333333333334 0.1875 0.125  0.75 0.1875 0.125  0.7916666666666666 0.1875 0.125  0.8333333333333334 0.1875 0.125  0.875 0.1875 0.125  0.9166666666666666 0.1875 0.125  0.9583333333333334 0.1875 0.125  1 0.1875 0.125  0.5416666666666666 0.25 0.125  0.5833333333333334 0.25 0.125  0.6666666666666666 0.25 0.125  0.7083333333333334 0.25 0.125  0.75 0.25 0.125  0.7916666666666666 0.25 0.125  0.8333333333333334 0.25 0.125  0.875 0.25 0.125  0.9166666666666666 0.25 0.125  0.9583333333333334 0.25 0.125  1 0.25 0.125  0.7916666666666666 0.3125 0.125  0.8333333333333334 0.3125 0.125  0.875 0.3125 0.125  0.9166666666666666 0.3125 0.125  0.9583333333333334 0.3125 0.125  1 0.3125 0.125  0.875 0.375 0.125  0.9166666666666666 0.375 0.125  0.9583333333333334 0.375 0.125  1 0.375 0.125  1 0.4375 0.125  0.2916666666666667 0 0.125  0.3333333333333333 0.0625 0.1875  0.3333333333333333 0 0.1875  0.2916666666666667 0 0.1875  0.2916666666666667 0.0625 0.125  0.2916666666666667 0.0625 0.1875  0.375 0.0625 0.1875  0.375 0 0.1875  0.4166666666666667 0.0625 0.1875  0.4166666666666667 0 0.1875  0.4583333333333333 0.0625 0.1875  0.4583333333333333 0 0.1875  0.5 0.0625 0.1875  0.5 0 0.1875  0.5416666666666666 0.0625 0.1875  0.5416666666666666 0 0.1875  0.5833333333333334 0.0625 0.1875  0.5833333333333334 0 0.1875  0.625 0.0625 0.1875  0.625 0 0.1875  0.6666666666666666 0.0625 0.1875  0.6666666666666666 0 0.1875  0.7083333333333334 0.0625 0.1875  0.7083333333333334 0 0.1875  0.75 0.0625 0.1875  0.75 0 0.1875  0.7916666666666666 0.0625 0.1875  0.7916666666666666 0 0.1875  0.8333333333333334 0.0625 0.1875  0.8333333333333334 0 0.1875  0.875 0.0625 0.1875  0.875 0 0.1875  0.9166666666666666 0.0625 0.1875  0.9166666666666666 0 0.1875  0.9583333333333334 0.0625 0.1875  0.9583333333333334 0 0.1875  1 0.0625 0.1875  1 0 0.1875  0.3333333333333333 0.125 0.1875  0.375 0.125 0.1875  0.3333333333333333 0.125 0.125  0.4166666666666667 0.125 0.1875  0.4583333333333333 0.125 0.1875  0.5 0.125 0.1875  0.5416666666666666 0.125 0.1875  0.5833333333333334 0.125 0.1875  0.625 0.125 0.1875  0.6666666666666666 0.125 0.1875  0.7083333333333334 0.125 0.1875  0.75 0.125 0.1875  0.7916666666666666 0.125 0.1875  0.8333333333333334 0.125 0.1875  0.875 0.125 0.1875  0.9166666666666666 0.125 0.1875  0.9583333333333334 0.125 0.1875  1 0.125 0.1875  0.375 0.1875 0.1875  0.4166666666666667 0.1875 0.1875  0.4583333333333333 0.1875 0.1875  0.5 0.1875 0.1875  0.5416666666666666 0.1875 0.1875  0.5833333333333334 0.1875 0.1875  0.625 0.1875 0.1875  0.6666666666666666 0.1875 0.1875  0.7083333333333334 0.1875 0.1875  0.75 0.1875 0.1875  0.7916666666666666 0.1875 0.1875  0.8333333333333334 0.1875 0.1875  0.875 0.1875 0.1875  0.9166666666666666 0.1875 0.1875  0.9583333333333334 0.1875 0.1875  1 0.1875 0.1875  0.4583333333333333 0.25 0.1875  0.5 0.25 0.1875  0.5416666666666666 0.25 0.1875  0.5833333333333334 0.25 0.1875  0.625 0.25 0.1875  0.6666666666666666 0.25 0.1875  0.7083333333333334 0.25 0.1875  0.75 0.25 0.1875  0.7916666666666666 0.25 0.1875  0.8333333333333334 0.25 0.1875  0.875 0.25 0.1875  0.9166666666666666 0.25 0.1875  0.9583333333333334 0.25 0.1875  1 0.25 0.1875  0.75 0.3125 0.1875  0.7916666666666666 0.3125 0.1875  0.8333333333333334 0.3125 0.1875  0.875 0.3125 0.1875  0.9166666666666666 0.3125 0.1875  0.9583333333333334 0.3125 0.1875  1 0.3125 0.1875  0.875 0.375 0.1875  0.9166666666666666 0.375 0.1875  0.9583333333333334 0.375 0.1875  1 0.375 0.1875  0.9583333333333334 0.4375 0.1875  1 0.4375 0.1875  0.3333333333333333 0.0625 0.25  0.3333333333333333 0 0.25  0.375 0.0625 0.25  0.375 0 0.25  0.4166666666666667 0.0625 0.25  0.4166666666666667 0 0.25  0.4583333333333333 0.0625 0.25  0.4583333333333333 0 0.25  0.5 0.0625 0.25  0.5 0 0.25  0.5416666666666666 0.0625 0.25  0.5416666666666666 0 0.25  0.5833333333333334 0.0625 0.25  0.5833333333333334 0 0.25  0.625 0.0625 0.25  0.625 0 0.25  0.6666666666666666 0.0625 0.25  0.6666666666666666 0 0.25  0.7083333333333334 0.0625 0.25  0.7083333333333334 0 0.25  0.75 0.0625 0.25  0.75 0 0.25  0.7916666666666666 0.0625 0.25  0.7916666666666666 0 0.25  0.8333333333333334 0.0625 0.25  0.8333333333333334 0 0.25  0.875 0.0625 0.25  0.875 0 0.
[...]
<PointData  Scalars="f_18"> 
<DataArray  type="Float64"  Name="f_18"  format="ascii">2.5286282098106415e+02  2.6310958193360585e+02  2.6310958193360585e+02  2.6310958193360585e+02  2.6310958193360585e+02  2.7126701408409144e+02  2.7126701408409144e+02  2.7126701408409144e+02  2.7126701408409144e+02  2.7719554150675867e+02  2.7719554150675867e+02  2.7719554150675867e+02  2.7719554150675867e+02  2.8079372545370722e+02  2.8079372545370722e+02  2.8079372545370722e+02  2.8079372545370722e+02  2.8200000000000000e+02  2.8200000000000000e+02  2.8200000000000000e+02  2.8200000000000000e+02  2.8079372545370728e+02  2.8079372545370728e+02  2.8079372545370728e+02  2.8079372545370728e+02  2.7719554150675867e+02  2.7719554150675867e+02  2.7719554150675867e+02  2.7719554150675867e+02  2.7126701408409144e+02  2.7126701408409144e+02  2.7126701408409144e+02  2.7126701408409144e+02  2.6310958193360585e+02  2.6310958193360585e+02  2.6310958193360585e+02  2.6310958193360585e+02  2.5286282098106415e+02  2.5286282098106415e+02  2.5286282098106415e+02  2.5286282098106415e+02  2.4070205614730321e+02  2.4070205614730321e+02  2.4070205614730321e+02  2.4070205614730321e+02  2.2683536149022964e+02  2.2683536149022964e+02  2.2683536149022964e+02  2.2683536149022964e+02  2.1150000000000000e+02  2.1150000000000000e+02  2.1150000000000000e+02  2.1150000000000000e+02  1.9495836396347767e+02  1.9495836396347767e+02  1.9495836396347767e+02  1.9495836396347767e+02  1.7749348535945546e+02  1.7749348535945546e+02  1.7749348535945546e+02  1.7749348535945546e+02  1.5940419310302727e+02  1.5940419310302727e+02  1.5940419310302727e+02  1.5940419310302727e+02  1.4100000000000003e+02  1.4100000000000003e+02  1.4100000000000003e+02  1.4100000000000003e+02  2.7126701408409144e+02  2.7126701408409144e+02  2.7719554150675867e+02  2.7719554150675867e+02  2.8079372545370722e+02  2.8079372545370722e+02  2.8200000000000000e+02  2.8200000000000000e+02  2.8079372545370728e+02  2.8079372545370728e+02  2.7719554150675867e+02  2.7719554150675867e+02  2.7126701408409144e+02  2.7126701408409144e+02  2.6310958193360585e+02  2.6310958193360585e+02  2.5286282098106415e+02  2.5286282098106415e+02  2.4070205614730321e+02  2.4070205614730321e+02  2.2683536149022964e+02  2.2683536149022964e+02  2.1150000000000000e+02  2.1150000000000000e+02  1.9495836396347767e+02  1.9495836396347767e+02  1.7749348535945546e+02  1.7749348535945546e+02  1.5940419310302727e+02  1.5940419310302727e+02  1.4100000000000003e+02  1.4100000000000003e+02  2.7719554150675867e+02  2.8079372545370722e+02  2.8200000000000000e+02  2.8079372545370728e+02  2.7719554150675867e+02  2.7126701408409144e+02  2.7126701408409144e+02  2.6310958193360585e+02  2.6310958193360585e+02  2.5286282098106415e+02  2.5286282098106415e+02  2.4070205614730321e+02  2.4070205614730321e+02  2.2683536149022964e+02  2.2683536149022964e+02  2.1150000000000000e+02  2.1150000000000000e+02  1.9495836396347767e+02  1.9495836396347767e+02  1.7749348535945546e+02  1.7749348535945546e+02  1.5940419310302727e+02  1.5940419310302727e+02  1.4100000000000003e+02  1.4100000000000003e+02  2.6310958193360585e+02  2.6310958193360585e+02  2.5286282098106415e+02  2.5286282098106415e+02  2.4070205614730321e+02  2.4070205614730321e+02  2.2683536149022964e+02  2.2683536149022964e+02  2.1150000000000000e+02  2.1150000000000000e+02  1.9495836396347767e+02  1.9495836396347767e+02  1.7749348535945546e+02  1.7749348535945546e+02  1.5940419310302727e+02  1.5940419310302727e+02  1.4100000000000003e+02  1.4100000000000003e+02  2.2683536149022964e+02  2.1150000000000000e+02  2.1150000000000000e+02  1.9495836396347767e+02  1.9495836396347767e+02  1.7749348535945546e+02  1.7749348535945546e+02  1.5940419310302727e+02  1.5940419310302727e+02  1.4100000000000003e+02  1.4100000000000003e+02  1.9495836396347767e+02  1.7749348535945546e+02  1.7749348535945546e+02  1.5940419310302727e+02  1.5940419310302727e+02  1.4100000000000003e+02  1.4100000000000003e+02  1.4100000000000003e+02  1.4100000000000003e+02  2.7126701408409144e+02  2.7126701408409144e+02  2.6310958193360585e+02  2.6310958193360585e+02  2.7719554150675867e+02  2.7719554150675867e+02  2.8079372545370722e+02  2.8079372545370722e+02  2.8200000000000000e+02  2.8200000000000000e+02  2.8079372545370728e+02  2.8079372545370728e+02  2.7719554150675867e+02  2.7719554150675867e+02  2.7126701408409144e+02  2.7126701408409144e+02  2.6310958193360585e+02  2.6310958193360585e+02  2.5286282098106415e+02  2.5286282098106415e+02  2.4070205614730321e+02  2.4070205614730321e+02  2.2683536149022964e+02  2.2683536149022964e+02  2.1150000000000000e+02  2.1150000000000000e+02  1.9495836396347767e+02  1.9495836396347767e+02  1.7749348535945546e+02  1.7749348535945546e+02  1.5940419310302727e+02  1.5940419310302727e+02  1.4100000000000003e+02  1.4100000000000003e+02  2.7126701408409144e+02  2.7719554150675867e+02  2.8079372545370722e+02  2.8200000000000000e+02  2.8079372545370728e+02  2.7719554150675867e+02  2.7126701408409144e+02  2.6310958193360585e+02  2.5286282098106415e+02  2.4070205614730321e+02  2.2683536149022964e+02  2.1150000000000000e+02  1.9495836396347767e+02  1.7749348535945546e+02  1.5940419310302727e+02  1.4100000000000003e+02  2.7719554150675867e+02  2.7126701408409144e+02  2.8079372545370722e+02  2.8200000000000000e+02  2.8079372545370728e+02  2.7719554150675867e+02  2.7126701408409144e+02  2.6310958193360585e+02  2.5286282098106415e+02  2.4070205614730321e+02  2.2683536149022964e+02  2.1150000000000000e+02  1.9495836396347767e+02  1.7749348535945546e+02  1.5940419310302727e+02  1.4100000000000003e+02  2.8079372545370728e+02  2.7719554150675867e+02  2.6310958193360585e+02  2.5286282098106415e+02  2.4070205614730321e+02  2.2683536149022964e+02  2.1150000000000000e+02  1.9495836396347767e+02  1.7749348535945546e+02  1.5940419310302727e+02  1.4100000000000003e+02  2.2683536149022964e+02  2.1150000000000000e+02  1.9495836396347767e+02  1.7749348535945546e+02  1.5940419310302727e+02  1.4100000000000003e+02  1.9495836396347767e+02  1.7749348535945546e+02  1.5940419310302727e+02  1.4100000000000003e+02  1.4100000000000003e+02  2.5286282098106415e+02  2.6310958193360585e+02  2.6310958193360585e+02  2.5286282098106415e+02  2.5286282098106415e+02  2.5286282098106415e+02  2.7126701408409144e+02  2.7126701408409144e+02  2.7719554150675867e+02  2.7719554150675867e+02  2.8079372545370722e+02  2.8079372545370722e+02  2.8200000000000000e+02  2.8200000000000000e+02  2.8079372545370728e+02  2.8079372545370728e+02  2.7719554150675867e+02  2.7719554150675867e+02  2.7126701408409144e+02  2.7126701408409144e+02  2.6310958193360585e+02  2.6310958193360585e+02  2.5286282098106415e+02  2.5286282098106415e+02  2.4070205614730321e+02  2.4070205614730321e+02  2.2683536149022964e+02  2.2683536149022964e+02  2.1150000000000000e+02  2.1150000000000000e+02  1.9495836396347767e+02  1.9495836396347767e+02  1.7749348535945546e+02  1.7749348535945546e+02  1.5940419310302727e+02  1.5940419310302727e+02  1.4100000000000003e+02  1.4100000000000003e+02  2.6310958193360585e+02  2.7126701408409144e+02  2.6310958193360585e+02  2.7719554150675867e+02  2.8079372545370722e+02  2.8200000000000000e+02  2.8079372545370728e+02  2.7719554150675867e+02  2.7126701408409144e+02  2.6310958193360585e+02  2.5286282098106415e+02  2.4070205614730321e+02  2.2683536149022964e+02  2.1150000000000000e+02  1.9495836396347767e+02  1.7749348535945546e+02  1.5940419310302727e+02  1.4100000000000003e+02  2.7126701408409144e+02  2.7719554150675867e+02  2.8079372545370722e+02  2.8200000000000000e+02  2.8079372545370728e+02  2.7719554150675867e+02  2.7126701408409144e+02  2.6310958193360585e+02  2.5286282098106415e+02  2.4070205614730321e+02  2.2683536149022964e+02  2.1150000000000000e+02  1.9495836396347767e+02  1.7749348535945546e+02  1.5940419310302727e+02  1.4100000000000003e+02  2.8079372545370722e+02  2.8200000000000000e+02  2.8079372545370728e+02  2.7719554150675867e+02  2.7126701408409144e+02  2.6310958193360585e+02  2.5286282098106415e+02  2.4070205614730321e+02  2.2683536149022964e+02  2.1150000000000000e+02  1.9495836396347767e+02  1.7749348535945546e+02  1.5940419310302727e+02  1.4100000000000003e+02  2.4070205614730321e+02  2.2683536149022964e+02  2.1150000000000000e+02  1.9495836396347767e+02  1.7749348535945546e+02  1.5940419310302727e+02  1.4100000000000003e+02  1.9495836396347767e+02  1.7749348535945546e+02  1.5940419310302727e+02  1.4100000000000003e+02  1.5940419310302727e+02  1.4100000000000003e+02  2.6310958193360585e+02  2.6310958193360585e+02  2.7126701408409144e+02  2.7126701408409144e+02  2.7719554150675867e+02  2.7719554150675867e+02  2.8079372545370722e+02  2.8079372545370722e+02  2.8200000000000000e+02  2.8200000000000000e+02  2.8079372545370728e+02  2.8079372545370728e+02  2.7719554150675867e+02  2.7719554150675867e+02  2.7126701408409144e+02  2.7126701408409144e+02  2.6310958193360585e+02  2.6310958193360585e+02  2.5286282098106415e+02  2.5286282098106415e+02  2.4070205614730321e+02  2.4070205614730321e+02  2.2683536149022964e+02  2.2683536149022964e+02  2.1150000000000000e+02  2.1150000000000000e+02  1.9495836396347767e+02  1.9495836396347767e+02  1.7749348535945546e+02  1.7749348535945546e+02  1.5940419310302727e+02  1.5940419310302727e+02  1.4100000000000003e+02  1.4100000000000003e+02  2.6310958193360585e+02  2.7126701408409144e+02  2.7719554150675867e+02  2.8079372545370722e+02  2.8200000000000000e+02  2.8079372545370728e+02  2.7719554150675867e+02  2.7126701408409144e+02  2.6310958193360585e+02  2.5286282098106415e+02  2.4070205614730321e+02  2.2683536149022964e+02  2.1150000000000000e+02  1.9495836396347767e+02  1.7749348535945546e+02  1.5940419310302727e+02  1.4100000000000003e+02  2.7126701408409144e+02  2.7719554150675867e+02  2.8079372545370722e+02  2.8200000000000000e+02  2.8079372545370728e+02  2.7719554150675867e+02  2.7126701408409144e+02  2.6310958193360585e+02  2.5286282098106415e+02  2.4070205614730321e+02  2.2683536149022964e+02  2.1150000000000000e+02  1.9495836396347767e+02  1.7749348535945546e+02  1.5940419310302727e+02  1.4100000000000003e+02  2.7719554150675867e+02  2.8079372545370722e+02  2.8200000000000000e+02  2.8079372545370728e+02  2.7719554150675867e+02  2.7126701408409144e+02  2.6310958193360585e+02  2.5286282098106415e+02  2.4070205614730321e+02  2.2683536149022964e+02  2.1150000000000000e+02  1.9495836396347767e+02  1.7749348535945546e+02  1.5940419310302727e+02  1.4100000000000003e+02  2.6310958193360585e+02  2.5286282098106415e+02  2.4070205614730321e+02  2.2683536149022964e+02  2.1150000000000000e+02  1.9495836396347767e+02  1.7749348535945546e+02  1.5940419310302727e+02  1.4100000000000003e+02  1.9495836396347767e+02  1.7749348535945546e+02  1.5940419310302727e+02  1.4100000000000003e+02  1.7749348535945546e+02  1.5940419310302727e+02  1.4100000000000003e+02  1.4100000000000003e+02  2.7126701408409144e+02  2.7126701408409144e+02  2.6310958193360585e+02  2.6310958193360585e+02  2.7719554150675867e+02  2.7719554150675867e+02  2.8079372545370722e+02  2.8079372545370722e+02  2.8200000000000000e+02  2.8200000000000000e+02  2.8079372545370728e+02  2.8079372545370728e+02  2.7719554150675867e+02  2.7719554150675867e+02  2.7126701408409144e+02  2.7126701408409144e+02  2.6310958193360585e+02  2.6310958193360585e+02  2.5286282098106415e+02  2.5286282098106415e+02  2.4070205614730321e+02  2.4070205614730321e+02  2.2683536149022964e+02  2.2683536149022964e+02  2.1150000000000000e+02  2.1150000000000000e+02  1.9495836396347767e+02  1.9495836396347767e+02  1.7749348535945546e+02  1.7749348535945546e+02  1.5940419310302727e+02  1.5940419310302727e+02  1.4100000000000003e+02  1.4100000000000003e+02  2.7126701408409144e+02  2.7719554150675867e+02  2.8079372545370722e+02  2.8200000000000000e+02  2.8079372545370728e+02  2.7719554150675867e+02  2.7126701408409144e+02  2.6310958193360585e+02  2.5286282098106415e+02  2.4070205614730321e+02  2.2683536149022964e+02  2.1150000000000000e+02  1.9495836396347767e+02  1.7749348535945546e+02  1.5940419310302727e+02  1.4100000000000003e+02  2.7126701408409144e+02  2.7719554150675867e+02  2.8079372545370722e+02  2.8200000000000000e+02  2.8079372545370728e+02  2.7719554150675867e+02  2.7126701408409144e+02  2.6310958193360585e+02  2.5286282098106415e+02  2.4070205614730321e+02  2.2683536149022964e+02  2.1150000000000000e+02  1.9495836396347767e+02  1.7749348535945546e+02  1.5940419310302727e+02  1.4100000000000003e+02  2.7719554150675867e+02  2.8079372545370722e+02  2.8200000000000000e+02  2.8079372545370728e+02  2.7719554150675867e+02  2.7126701408409144e+02  2.6310958193360585e+02  2.5286282098106415e+02  2.4070205614730321e+02  2.2683536149022964e+02  2.1150000000000000e+02  1.9495836396347767e+02  1.7749348535945546e+02  1.5940419310302727e+02  1.4100000000000003e+02  2.8079372545370722e+02  2.8200000000000000e+02  2.8079372545370728e+02  2.7719554150675867e+02  2.7126701408409144e+02  2.6310958193360585e+02  2.5286282098106415e+02  2.4070205614730321e+02  2.2683536149022964e+02  2.1150000000000000e+02  1.9495836396347767e+02  1.7749348535945546e+02  1.5940419310302727e+02  1.4100000000000003e+02  2.4070205614730321e+02  2.2683536149022964e+02  2.1150000000000000e+02  1.9495836396347767e+02  1.7749348535945546e+02  1.5940419310302727e+02  1.4100000000000003e+02  1.7749348535945546e+02  1.5940419310302727e+02  1.4100000000000003e+02  1.4100000000000003e+02  2.7126701408409144e+02  2.7126701408409144e+02  2.6310958193360585e+02  2.6310958193360585e+02  2.7719554150675867e+02  2.7719554150675867e+02  2.8079372545370722e+02  2.8079372545370722e+02  2.8200000000000000e+02  2.8200000000000000e+02  2.8079372545370728e+02  2.8079372545370728e+02  2.7719554150675867e+02  2.7719554150675867e+02  2.7126701408409144e+02  2.7126701408409144e+02  2.6310958193360585e+02  2.6310958193360585e+02  2.5286282098106415e+02  2.5286282098106415e+02  2.4070205614730321e+02  2.4070205614730321e+02  2.2683536149022964e+02  2.2683536149022964e+02  2.1150000000000000e+02  2.1150000000000000e+02  1.9495836396347767e+02  1.9495836396347767e+02  1.7749348535945546e+02  1.7749348535945546e+02  1.5940419310302727e+02  1.5940419310302727e+02  1.4100000000000003e+02  1.4100000000000003e+02  2.7126701408409144e+02  2.7719554150675867e+02  2.8079372545370722e+02  2.8200000000000000e+02  2.8079372545370728e+02  2.7719554150675867e+02  2.7126701408409144e+02  2.6310958193360585e+02  2.5286282098106415e+02  2.4070205614730321e+02  2.2683536149022964e+02  2.1150000000000000e+02  1.9495836396347767e+02  1.7749348535945546e+02  1.5940419310302727e+02  1.4100000000000003e+02  2.7719554150675867e+02  2.7126701408409144e+02  2.8079372545370722e+02  2.8200000000000000e+02  2.8079372545370728e+02  2.7719554150675867e+02  2.7126701408409144e+02  2.6310958193360585e+02  2.5286282098106415e+02  2.4070205614730321e+02  2.2683536149022964e+02  2.1150000000000000e+02  1.9495836396347767e+02  1.7749348535945546e+02  1.5940419310302727e+02  1.4100000000000003e+02  2.7719554150675867e+02  2.8079372545370722e+02  2.8200000000000000e+02  2.8079372545370728e+02  2.7719554150675867e+02  2.7126701408409144e+02  2.6310958193360585e+02  2.5286282098106415e+02  2.4070205614730321e+02  2.2683536149022964e+02  2.1150000000000000e+02  1.9495836396347767e+02  1.7749348535945546e+02  1.5940419310302727e+02  1.4100000000000003e+02  2.8079372545370722e+02  2.7719554150675867e+02  2.8200000000000000e+02  2.8079372545370728e+02  2.7719554150675867e+02  2.7126701408409144e+02  2.6310958193360585e+02  2.5286282098106415e+02  2.4070205614730321e+02  2.2683536149022964e+02  2.1150000000000000e+02  1.9495836396347767e+02  1.7749348535945546e+02  1.5940419310302727e+02  1.4100000000000003e+02  2.5286282098106415e+02  2.4070205614730321e+02  2.2683536149022964e+02  2.1150000000000000e+02  1.9495836396347767e+02  1.7749348535945546e+02  1.5940419310302727e+02  1.4100000000000003e+02  1.9495836396347767e+02  1.7749348535945546e+02  1.5940419310302727e+02  1.4100000000000003e+02  1.4100000000000003e+02  2.7126701408409144e+02  2.7126701408409144e+02  2.6310958193360585e+02  2.6310958193360585e+02  2.7719554150675867e+02  2.7719554150675867e+02  2.8079372545370722e+02  2.8079372545370722e+02  2.8200000000000000e+02  2.8200000000000000e+02  2.8079372545370728e+02  2.8079372545370728e+02  2.7719554150675867e+02  2.7719554150675867e+02  2.7126701408409144e+02  2.7126701408409144e+02  2.6310958193360585e+02  2.6310958193360585e+02  2.5286282098106415e+02  2.5286282098106415e+02  2.4070205614730321e+02  2.4070205614730321e+02  2.2683536149022964e+02  2.2683536149022964e+02  2.1150000000000000e+02  2.1150000000000000e+02  1.9495836396347767e+02  1.9495836396347767e+02  1.7749348535945546e+02  1.7749348535945546e+02  1.5940419310302727e+02  1.5940419310302727e+02  1.4100000000000003e+02  1.4100000000000003e+02  2.7126701408409144e+02  2.7719554150675867e+02  2.8079372545370722e+02  2.8200000000000000e+02  2.8079372545370728e+02  2.7719554150675867e+02  2.7126701408409144e+02  2.6310958193360585e+02  2.5286282098106415e+02  2.4070205614730321e+02  2.2683536149022964e+02  2.1150000000000000e+02  1.9495836396347767e+02  1.7749348535945546e+02  1.5940419310302727e+02  1.4100000000000003e+02  2.7719554150675867e+02  2.8079372545370722e+02  2.8200000000000000e+02  2.8079372545370728e+02  2.7719554150675867e+02  2.7126701408409144e+02  2.6310958193360585e+02  2.5286282098106415e+02  2.4070205614730321e+02  2.2683536149022964e+02  2.1150000000000000e+02  1.9495836396347767e+02  1.7749348535945546e+02  1.5940419310302727e+02  1.4100000000000003e+02  2.7719554150675867e+02  2.8079372545370722e+02  2.8200000000000000e+02  2.8079372545370728e+02  2.7719554150675867e+02  2.7126701408409144e+02  2.6310958193360585e+02  2.5286282098106415e+02  2.4070205614730321e+02  2.2683536149022964e+02  2.1150000000000000e+02  1.9495836396347767e+02  1.7749348535945546e+02  1.5940419310302727e+02  1.4100000000000003e+02  2.8079372545370722e+02  2.7719554150675867e+02  2.8200000000000000e+02  2.8079372545370728e+02  2.7719554150675867e+02  2.7126701408409144e+02  2.6310958193360585e+02  2.5286282098106415e+02  2.4070205614730321e+02  2.2683536149022964e+02  2.1150000000000000e+02  1.9495836396347767e+02  1.7749348535945546e+02  1.5940419310302727e+02  1.4100000000000003e+02  2.8079372545370722e+02  2.8200000000000000e+02  2.8079372545370728e+02  2.7719554150675867e+02  2.7126701408409144e+02  2.6310958193360585e+02  2.5286282098106415e+02  2.4070205614730321e+02  2.2683536149022964e+02  2.1150000000000000e+02  1.9495836396347767e+02  1.7749348535945546e+02  1.5940419310302727e+02  1.4100000000000003e+02  2.4070205614730321e+02  2.2683536149022964e+02  2.1150000000000000e+02  1.9495836396347767e+02  1.7749348535945546e+02  1.5940419310302727e+02  1.4100000000000003e+02  1.5940419310302727e+02  1.4100000000000003e+02  2.7126701408409144e+02  2.7126701408409144e+02  2.6310958193360585e+02  2.6310958193360585e+02  2.7719554150675867e+02  2.7719554150675867e+02  2.8079372545370722e+02  2.8079372545370722e+02  2.8200000000000000e+02  2.8200000000000000e+02  2.8079372545370728e+02  2.8079372545370728e+02  2.7719554150675867e+02  2.7719554150675867e+02  2.7126701408409144e+02  2.7126701408409144e+02  2.6310958193360585e+02  2.6310958193360585e+02  2.5286282098106415e+02  2.5286282098106415e+02  2.4070205614730321e+02  2.4070205614730321e+02  2.2683536149022964e+02  2.2683536149022964e+02  2.1150000000000000e+02  2.1150000000000000e+02  1.9495836396347767e+02  1.9495836396347767e+02  1.7749348535945546e+02  1.7749348535945546e+02  1.5940419310302727e+02  1.5940419310302727e+02  1.4100000000000003e+02  1.4100000000000003e+02  2.7126701408409144e+02  2.7719554150675867e+02  2.8079372545370722e+02  2.8200000000000000e+02  2.8079372545370728e+02  2.7719554150675867e+02  2.7126701408409144e+02  2.6310958193360585e+02  2.5286282098106415e+02  2.4070205614730321e+02  2.2683536149022964e+02  2.1150000000000000e+02  1.9495836396347767e