<?xml version="1.0"?>
<VTKFile type="UnstructuredGrid"  version="0.1"  >
<UnstructuredGrid>
<Piece  NumberOfPoints="2005" NumberOfCells="9191">
<Points>
<DataArray  type="Float64"  NumberOfComponents="3"  format="ascii">0.2916666666666667 0 0  0.3333333333333333 0 0  0.3333333333333333 0.0625 0  0.3333333333333333 0.0625 0.0625  0.3333333333333333 0 0.0625  0.375 0 0  0.375 0.0625 0  0.375 0.0625 0.0625  0.375 0 0.0625  0.4166666666666667 0 0  0.4166666666666667 0.0625 0  0.4166666666666667 0.0625 0.0625  0.4166666666666667 0 0.0625  0.4583333333333333 0 0  0.4583333333333333 0.0625 0  0.4583333333333333 0.0625 0.0625  0.4583333333333333 0 0.0625  0.5 0 0  0.5 0.0625 0  0.5 0.0625 0.0625  0.5 0 0.0625  0.5416666666666666 0 0  0.5416666666666666 0.0625 0  0.5416666666666666 0.0625 0.0625  0.5416666666666666 0 0.0625  0.5833333333333334 0 0  0.5833333333333334 0.0625 0  0.5833333333333334 0.0625 0.0625  0.5833333333333334 0 0.0625  0.625 0 0  0.625 0.0625 0  0.625 0.0625 0.0625  0.625 0 0.0625  0.6666666666666666 0 0  0.6666666666666666 0.0625 0  0.6666666666666666 0.0625 0.0625  0.6666666666666666 0 0.0625  0.7083333333333334 0 0  0.7083333333333334 0.0625 0  0.7083333333333334 0.0625 0.0625  0.7083333333333334 0 0.0625  0.75 0 0  0.75 0.0625 0  0.75 0.0625 0.0625  0.75 0 0.0625  0.7916666666666666 0 0  0.7916666666666666 0.0625 0  0.7916666666666666 0.0625 0.0625  0.7916666666666666 0 0.0625  0.8333333333333334 0 0  0.8333333333333334 0.0625 0  0.8333333333333334 0.0625 0.0625  0.8333333333333334 0 0.0625  0.875 0 0  0.875 0.0625 0  0.875 0.0625 0.0625  0.875 0 0.0625  0.9166666666666666 0 0  0.9166666666666666 0.0625 0  0.9166666666666666 0.0625 0.0625  0.9166666666666666 0 0.0625  0.9583333333333334 0 0  0.9583333333333334 0.0625 0  0.9583333333333334 0.0625 0.0625  0.9583333333333334 0 0.0625  1 0 0  1 0.0625 0  1 0.0625 0.0625  1 0 0.0625  0.375 0.125 0  0.375 0.125 0.0625  0.4166666666666667 0.125 0  0.4166666666666667 0.125 0.0625  0.4583333333333333 0.125 0  0.4583333333333333 0.125 0.0625  0.5 0.125 0  0.5 0.125 0.0625  0.5416666666666666 0.125 0  0.5416666666666666 0.125 0.0625  0.5833333333333334 0.125 0  0.5833333333333334 0.125 0.0625  0.625 0.125 0  0.625 0.125 0.0625  0.6666666666666666 0.125 0  0.6666666666666666 0.125 0.0625  0.7083333333333334 0.125 0  0.7083333333333334 0.125 0.0625  0.75 0.125 0  0.75 0.125 0.0625  0.7916666666666666 0.125 0  0.7916666666666666 0.125 0.0625  0.8333333333333334 0.125 0  0.8333333333333334 0.125 0.0625  0.875 0.125 0  0.875 0.125 0.0625  0.9166666666666666 0.125 0  0.9166666666666666 0.125 0.0625  0.9583333333333334 0.125 0  0.9583333333333334 0.125 0.0625  1 0.125 0  1 0.125 0.0625  0.4166666666666667 0.1875 0.0625  0.4583333333333333 0.1875 0.0625  0.5 0.1875 0.0625  0.5416666666666666 0.1875 0.0625  0.5833333333333334 0.1875 0.0625  0.625 0.1875 0  0.625 0.1875 0.0625  0.6666666666666666 0.1875 0  0.6666666666666666 0.1875 0.0625  0.7083333333333334 0.1875 0  0.7083333333333334 0.1875 0.0625  0.75 0.1875 0  0.75 0.1875 0.0625  0.7916666666666666 0.1875 0  0.7916666666666666 0.1875 0.0625  0.8333333333333334 0.1875 0  0.8333333333333334 0.1875 0.0625  0.875 0.1875 0  0.875 0.1875 0.0625  0.9166666666666666 0.1875 0  0.9166666666666666 0.1875 0.0625  0.9583333333333334 0.1875 0  0.9583333333333334 0.1875 0.0625  1 0.1875 0  1 0.1875 0.0625  0.6666666666666666 0.25 0  0.6666666666666666 0.25 0.0625  0.7083333333333334 0.25 0  0.7083333333333334 0.25 0.0625  0.75 0.25 0  0.75 0.25 0.0625  0.7916666666666666 0.25 0  0.7916666666666666 0.25 0.0625  0.8333333333333334 0.25 0  0.8333333333333334 0.25 0.0625  0.875 0.25 0  0.875 0.25 0.0625  0.9166666666666666 0.25 0  0.9166666666666666 0.25 0.0625  0.9583333333333334 0.25 0  0.9583333333333334 0.25 0.0625  1 0.25 0  1 0.25 0.0625  0.7916666666666666 0.3125 0.0625  0.8333333333333334 0.3125 0  0.8333333333333334 0.3125 0.0625  0.875 0.3125 0  0.875 0.3125 0.0625  0.9166666666666666 0.3125 0  0.9166666666666666 0.3125 0.0625  0.9583333333333334 0.3125 0  0.9583333333333334 0.3125 0.0625  1 0.3125 0  1 0.3125 0.0625  0.875 0.375 0.0625  0.9166666666666666 0.375 0  0.9166666666666666 0.375 0.0625  0.9583333333333334 0.375 0  0.9583333333333334 0.375 0.0625  1 0.375 0  1 0.375 0.0625  1 0.4375 0  1 0.4375 0.0625  0.375 0.0625 0.125  0.375 0 0.125  0.3333333333333333 0 0.125  0.3333333333333333 0.0625 0.125  0.4166666666666667 0.0625 0.125  0.4166666666666667 0 0.125  0.4583333333333333 0.0625 0.125  0.4583333333333333 0 0.125  0.5 0.0625 0.125  0.5 0 0.125  0.5416666666666666 0.0625 0.125  0.5416666666666666 0 0.125  0.5833333333333334 0.0625 0.125  0.5833333333333334 0 0.125  0.625 0.0625 0.125  0.625 0 0.125  0.6666666666666666 0.0625 0.125  0.6666666666666666 0 0.125  0.7083333333333334 0.0625 0.125  0.7083333333333334 0 0.125  0.75 0.0625 0.125  0.75 0 0.125  0.7916666666666666 0.0625 0.125  0.7916666666666666 0 0.125  0.8333333333333334 0.0625 0.125  0.8333333333333334 0 0.125  0.875 0.0625 0.125  0.875 0 0.125  0.9166666666666666 0.0625 0.125  0.9166666666666666 0 0.125  0.9583333333333334 0.0625 0.125  0.9583333333333334 0 0.125  1 0.0625 0.125  1 0 0.125  0.375 0.125 0.125  0.4166666666666667 0.125 0.125  0.4583333333333333 0.125 0.125  0.5 0.125 0.125  0.5416666666666666 0.125 0.125  0.5833333333333334 0.125 0.125  0.625 0.125 0.125  0.6666666666666666 0.125 0.125  0.7083333333333334 0.125 0.125  0.75 0.125 0.125  0.7916666666666666 0.125 0.125  0.8333333333333334 0.125 0.125  0.875 0.125 0.125  0.9166666666666666 0.125 0.125  0.9583333333333334 0.125 0.125  1 0.125 0.125  0.4166666666666667 0.1875 0.125  0.375 0.1875 0.125  0.4583333333333333 0.1875 0.125  0.5 0.1875 0.125  0.5416666666666666 0.1875 0.125  0.5833333333333334 0.1875 0.125  0.625 0.1875 0.125  0.6666666666666666 0.1875 0.125  0.7083333333333334 0.1875 0.125  0.75 0.1875 0.125  0.7916666666666666 0.1875 0.125  0.8333333333333334 0.1875 0.125  0.875 0.1875 0.125  0.9166666666666666 0.1875 0.125  0.9583333333333334 0.1875 0.125  1 0.1875 0.125  0.5416666666666666 0.25 0.125  0.5833333333333334 0.25 0.125  0.6666666666666666 0.25 0.125  0.7083333333333334 0.25 0.125  0.75 0.25 0.125  0.7916666666666666 0.25 0.125  0.8333333333333334 0.25 0.125  0.875 0.25 0.125  0.9166666666666666 0.25 0.125  0.9583333333333334 0.25 0.125  1 0.25 0.125  0.7916666666666666 0.3125 0.125  0.8333333333333334 0.3125 0.125  0.875 0.3125 0.125  0.9166666666666666 0.3125 0.125  0.9583333333333334 0.3125 0.125  1 0.3125 0.125  0.875 0.375 0.125  0.9166666666666666 0.375 0.125  0.9583333333333334 0.375 0.125  1 0.375 0.125  1 0.4375 0.125  0.2916666666666667 0 0.125  0.3333333333333333 0.0625 0.1875  0.3333333333333333 0 0.1875  0.2916666666666667 0 0.1875  0.2916666666666667 0.0625 0.125  0.2916666666666667 0.0625 0.1875  0.375 0.0625 0.1875  0.375 0 0.1875  0.4166666666666667 0.0625 0.1875  0.4166666666666667 0 0.1875  0.4583333333333333 0.0625 0.1875  0.4583333333333333 0 0.1875  0.5 0.0625 0.1875  0.5 0 0.1875  0.5416666666666666 0.0625 0.1875  0.5416666666666666 0 0.1875  0.5833333333333334 0.0625 0.1875  0.5833333333333334 0 0.1875  0.625 0.0625 0.1875  0.625 0 0.1875  0.6666666666666666 0.0625 0.1875  0.6666666666666666 0 0.1875  0.7083333333333334 0.0625 0.1875  0.7083333333333334 0 0.1875  0.75 0.0625 0.1875  0.75 0 0.1875  0.7916666666666666 0.0625 0.1875  0.7916666666666666 0 0.1875  0.8333333333333334 0.0625 0.1875  0.8333333333333334 0 0.1875  0.875 0.0625 0.1875  0.875 0 0.1875  0.9166666666666666 0.0625 0.1875  0.9166666666666666 0 0.1875  0.9583333333333334 0.0625 0.1875  0.9583333333333334 0 0.1875  1 0.0625 0.1875  1 0 0.1875  0.3333333333333333 0.125 0.1875  0.375 0.125 0.1875  0.3333333333333333 0.125 0.125  0.4166666666666667 0.125 0.1875  0.4583333333333333 0.125 0.1875  0.5 0.125 0.1875  0.5416666666666666 0.125 0.1875  0.5833333333333334 0.125 0.1875  0.625 0.125 0.1875  0.6666666666666666 0.125 0.1875  0.7083333333333334 0.125 0.1875  0.75 0.125 0.1875  0.7916666666666666 0.125 0.1875  0.8333333333333334 0.125 0.1875  0.875 0.125 0.1875  0.9166666666666666 0.125 0.1875  0.9583333333333334 0.125 0.1875  1 0.125 0.1875  0.375 0.1875 0.1875  0.4166666666666667 0.1875 0.1875  0.4583333333333333 0.1875 0.1875  0.5 0.1875 0.1875  0.5416666666666666 0.1875 0.1875  0.5833333333333334 0.1875 0.1875  0.625 0.1875 0.1875  0.6666666666666666 0.1875 0.1875  0.7083333333333334 0.1875 0.1875  0.75 0.1875 0.1875  0.7916666666666666 0.1875 0.1875  0.8333333333333334 0.1875 0.1875  0.875 0.1875 0.1875  0.9166666666666666 0.1875 0.1875  0.9583333333333334 0.1875 0.1875  1 0.1875 0.1875  0.4583333333333333 0.25 0.1875  0.5 0.25 0.1875  0.5416666666666666 0.25 0.1875  0.5833333333333334 0.25 0.1875  0.625 0.25 0.1875  0.6666666666666666 0.25 0.1875  0.7083333333333334 0.25 0.1875  0.75 0.25 0.1875  0.7916666666666666 0.25 0.1875  0.8333333333333334 0.25 0.1875  0.875 0.25 0.1875  0.9166666666666666 0.25 0.1875  0.9583333333333334 0.25 0.1875  1 0.25 0.1875  0.75 0.3125 0.1875  0.7916666666666666 0.3125 0.1875  0.8333333333333334 0.3125 0.1875  0.875 0.3125 0.1875  0.9166666666666666 0.3125 0.1875  0.9583333333333334 0.3125 0.1875  1 0.3125 0.1875  0.875 0.375 0.1875  0.9166666666666666 0.375 0.1875  0.9583333333333334 0.375 0.1875  1 0.375 0.1875  0.9583333333333334 0.4375 0.1875  1 0.4375 0.1875  0.3333333333333333 0.0625 0.25  0.3333333333333333 0 0.25  0.375 0.0625 0.25  0.375 0 0.25  0.4166666666666667 0.0625 0.25  0.4166666666666667 0 0.25  0.4583333333333333 0.0625 0.25  0.4583333333333333 0 0.25  0.5 0.0625 0.25  0.5 0 0.25  0.5416666666666666 0.0625 0.25  0.5416666666666666 0 0.25  0.5833333333333334 0.0625 0.25  0.5833333333333334 0 0.25  0.625 0.0625 0.25  0.625 0 0.25  0.6666666666666666 0.0625 0.25  0.6666666666666666 0 0.25  0.7083333333333334 0.0625 0.25  0.7083333333333334 0 0.25  0.75 0.0625 0.25  0.75 0 0.25  0.7916666666666666 0.0625 0.25  0.7916666666666666 0 0.25  0.8333333333333334 0.0625 0.25  0.8333333333333334 0 0.25  0.875 0.0625 0.25  0.875 0 0.
[...]
<PointData  Vectors="f_13"> 
<DataArray  type="Float64"  Name="f_13"  NumberOfComponents="3" format="ascii">9.9999999999999992e-02 0.0000000000000000e+00 0.0000000000000000e+00  9.9999999999999992e-02 0.0000000000000000e+00 0.0000000000000000e+00  1.0000000000000002e-01 0.0000000000000000e+00 0.0000000000000000e+00  9.9999999999999700e-02 -1.3889860357021698e-16 -1.0133632024856690e-16  1.0000000000000002e-01 0.0000000000000000e+00 0.0000000000000000e+00  9.9999999999999992e-02 0.0000000000000000e+00 0.0000000000000000e+00  1.0000000000000002e-01 0.0000000000000000e+00 0.0000000000000000e+00  9.9999999999999659e-02 -2.1632825231324108e-17 -2.8105483849256909e-17  1.0000000000000002e-01 0.0000000000000000e+00 0.0000000000000000e+00  9.9999999999999992e-02 0.0000000000000000e+00 0.0000000000000000e+00  1.0000000000000002e-01 0.0000000000000000e+00 0.0000000000000000e+00  9.9999999999999478e-02 8.0606772751456828e-17 4.0328815956667093e-17  1.0000000000000002e-01 0.0000000000000000e+00 0.0000000000000000e+00  9.9999999999999992e-02 0.0000000000000000e+00 0.0000000000000000e+00  1.0000000000000002e-01 0.0000000000000000e+00 0.0000000000000000e+00  9.9999999999999284e-02 1.5878442699404188e-16 6.1032468518177509e-17  1.0000000000000002e-01 0.0000000000000000e+00 0.0000000000000000e+00  9.9999999999999992e-02 0.0000000000000000e+00 0.0000000000000000e+00  1.0000000000000002e-01 0.0000000000000000e+00 0.0000000000000000e+00  9.9999999999998992e-02 1.2231217330032166e-16 1.4660469466497523e-16  1.0000000000000002e-01 0.0000000000000000e+00 0.0000000000000000e+00  9.9999999999999992e-02 0.0000000000000000e+00 0.0000000000000000e+00  1.0000000000000002e-01 0.0000000000000000e+00 0.0000000000000000e+00  9.9999999999998909e-02 1.5054356989273639e-16 1.7713229037845490e-16  1.0000000000000002e-01 0.0000000000000000e+00 0.0000000000000000e+00  9.9999999999999992e-02 0.0000000000000000e+00 0.0000000000000000e+00  1.0000000000000002e-01 0.0000000000000000e+00 0.0000000000000000e+00  9.9999999999998923e-02 2.1485853112993586e-16 1.9859730332173168e-16  1.0000000000000002e-01 0.0000000000000000e+00 0.0000000000000000e+00  9.9999999999999992e-02 0.0000000000000000e+00 0.0000000000000000e+00  1.0000000000000002e-01 0.0000000000000000e+00 0.0000000000000000e+00  9.9999999999998909e-02 2.2606630866133945e-16 1.2542083937312105e-16  1.0000000000000002e-01 0.0000000000000000e+00 0.0000000000000000e+00  9.9999999999999992e-02 0.0000000000000000e+00 0.0000000000000000e+00  1.0000000000000002e-01 0.0000000000000000e+00 0.0000000000000000e+00  9.9999999999999034e-02 2.2092263904169568e-16 2.0869088423597876e-16  1.0000000000000002e-01 0.0000000000000000e+00 0.0000000000000000e+00  9.9999999999999992e-02 0.0000000000000000e+00 0.0000000000000000e+00  1.0000000000000002e-01 0.0000000000000000e+00 0.0000000000000000e+00  9.9999999999999228e-02 3.1699643161432676e-16 3.5636816079974679e-16  1.0000000000000002e-01 0.0000000000000000e+00 0.0000000000000000e+00  9.9999999999999992e-02 0.0000000000000000e+00 0.0000000000000000e+00  1.0000000000000002e-01 0.0000000000000000e+00 0.0000000000000000e+00  9.9999999999999256e-02 3.2972446195208980e-16 3.3669846302743433e-16  1.0000000000000002e-01 0.0000000000000000e+00 0.0000000000000000e+00  9.9999999999999992e-02 0.0000000000000000e+00 0.0000000000000000e+00  1.0000000000000002e-01 0.0000000000000000e+00 0.0000000000000000e+00  9.9999999999999270e-02 3.6358996794335789e-16 4.1224723484805918e-16  1.0000000000000002e-01 0.0000000000000000e+00 0.0000000000000000e+00  9.9999999999999992e-02 0.0000000000000000e+00 0.0000000000000000e+00  1.0000000000000002e-01 0.0000000000000000e+00 0.0000000000000000e+00  9.9999999999999339e-02 4.3246310647848761e-16 4.9954077658350346e-16  1.0000000000000002e-01 0.0000000000000000e+00 0.0000000000000000e+00  9.9999999999999992e-02 0.0000000000000000e+00 0.0000000000000000e+00  1.0000000000000002e-01 0.0000000000000000e+00 0.0000000000000000e+00  9.9999999999999339e-02 3.7113490443438686e-16 4.7578303316021432e-16  1.0000000000000002e-01 0.0000000000000000e+00 0.0000000000000000e+00  9.9999999999999992e-02 0.0000000000000000e+00 0.0000000000000000e+00  1.0000000000000002e-01 0.0000000000000000e+00 0.0000000000000000e+00  9.9999999999999450e-02 3.9126461683909123e-16 4.5751186293756288e-16  1.0000000000000002e-01 0.0000000000000000e+00 0.0000000000000000e+00  9.9999999999999992e-02 0.0000000000000000e+00 0.0000000000000000e+00  1.0000000000000002e-01 0.0000000000000000e+00 0.0000000000000000e+00  9.9999999999999700e-02 3.5148815559932110e-16 3.8159080661903042e-16  1.0000000000000002e-01 0.0000000000000000e+00 0.0000000000000000e+00  1.0000000000000001e-01 0.0000000000000000e+00 0.0000000000000000e+00  1.0000000000000001e-01 0.0000000000000000e+00 0.0000000000000000e+00  1.0000000000000002e-01 0.0000000000000000e+00 0.0000000000000000e+00  1.0000000000000001e-01 0.0000000000000000e+00 0.0000000000000000e+00  1.0000000000000002e-01 0.0000000000000000e+00 0.0000000000000000e+00  9.9999999999999728e-02 -1.6594090344389045e-17 -6.7816514033737290e-17  1.0000000000000002e-01 0.0000000000000000e+00 0.0000000000000000e+00  9.9999999999999534e-02 2.3395124795749378e-16 3.1559040189903239e-17  1.0000000000000002e-01 0.0000000000000000e+00 0.0000000000000000e+00  9.9999999999999339e-02 2.8835256409089044e-16 7.7968244787088545e-17  1.0000000000000002e-01 0.0000000000000000e+00 0.0000000000000000e+00  9.9999999999999159e-02 2.9733807070007497e-16 1.0647619161181247e-16  1.0000000000000002e-01 0.0000000000000000e+00 0.0000000000000000e+00  9.9999999999999048e-02 2.7625082955671036e-16 1.4311944015649321e-16  1.0000000000000002e-01 0.0000000000000000e+00 0.0000000000000000e+00  9.9999999999999034e-02 2.7432794878833695e-16 2.5577792458497847e-16  1.0000000000000002e-01 0.0000000000000000e+00 0.0000000000000000e+00  9.9999999999999062e-02 3.6745161472166985e-16 2.5164772674672483e-16  1.0000000000000002e-01 0.0000000000000000e+00 0.0000000000000000e+00  9.9999999999999131e-02 3.9696036767765934e-16 3.2760348800924502e-16  1.0000000000000002e-01 0.0000000000000000e+00 0.0000000000000000e+00  9.9999999999999159e-02 3.0312243565832206e-16 3.1542186557285616e-16  1.0000000000000002e-01 0.0000000000000000e+00 0.0000000000000000e+00  9.9999999999999228e-02 4.6034643709280837e-16 3.4366332487555960e-16  1.0000000000000002e-01 0.0000000000000000e+00 0.0000000000000000e+00  9.9999999999999256e-02 4.9140058944089538e-16 4.4288684725534653e-16  1.0000000000000002e-01 0.0000000000000000e+00 0.0000000000000000e+00  9.9999999999999270e-02 5.8235867537540589e-16 5.8244181191678027e-16  1.0000000000000002e-01 0.0000000000000000e+00 0.0000000000000000e+00  9.9999999999999187e-02 5.1213061347380983e-16 5.8590139953696513e-16  1.0000000000000002e-01 0.0000000000000000e+00 0.0000000000000000e+00  9.9999999999999256e-02 4.3459045570319731e-16 4.7475095679492164e-16  1.0000000000000002e-01 0.0000000000000000e+00 0.0000000000000000e+00  9.9999999999999575e-02 3.1027496272005719e-16 3.9010114838314690e-16  1.0000000000000001e-01 0.0000000000000000e+00 0.0000000000000000e+00  1.0000000000000002e-01 0.0000000000000000e+00 0.0000000000000000e+00  9.9999999999999117e-02 3.0432066523326781e-16 -7.4377452420733238e-17  9.9999999999999187e-02 4.4248751661902057e-16 7.9535028783501960e-18  9.9999999999999048e-02 4.2792507331436200e-16 1.5774809504644428e-16  9.9999999999998992e-02 3.6448994703165939e-16 1.8141990464757998e-16  9.9999999999999006e-02 2.2180406807416865e-16 3.2181449735578708e-16  1.0000000000000002e-01 0.0000000000000000e+00 0.0000000000000000e+00  9.9999999999999062e-02 2.0051391338067760e-16 2.8347457451010502e-16  1.0000000000000002e-01 0.0000000000000000e+00 0.0000000000000000e+00  9.9999999999999298e-02 2.5080845127887385e-16 4.6561314197785909e-16  1.0000000000000002e-01 0.0000000000000000e+00 0.0000000000000000e+00  9.9999999999999423e-02 3.3919790222213218e-16 3.7952377639412470e-16  1.0000000000000002e-01 0.0000000000000000e+00 0.0000000000000000e+00  9.9999999999999437e-02 5.8269760866834848e-16 4.1077279893728835e-16  1.0000000000000002e-01 0.0000000000000000e+00 0.0000000000000000e+00  9.9999999999999409e-02 6.2065349752789708e-16 5.4259667185667347e-16  1.0000000000000002e-01 0.0000000000000000e+00 0.0000000000000000e+00  9.9999999999999409e-02 6.5314397394204343e-16 5.9797277231811641e-16  1.0000000000000002e-01 0.0000000000000000e+00 0.0000000000000000e+00  9.9999999999999353e-02 5.2032389538138302e-16 5.8011764720924172e-16  1.0000000000000002e-01 0.0000000000000000e+00 0.0000000000000000e+00  9.9999999999999450e-02 4.8462359176627802e-16 5.4445982442015510e-16  1.0000000000000002e-01 0.0000000000000000e+00 0.0000000000000000e+00  9.9999999999999617e-02 2.7205693973951979e-16 4.3786866472449097e-16  1.0000000000000001e-01 0.0000000000000000e+00 0.0000000000000000e+00  1.0000000000000002e-01 0.0000000000000000e+00 0.0000000000000000e+00  1.0000000000000002e-01 0.0000000000000000e+00 0.0000000000000000e+00  9.9999999999998743e-02 7.1942627226199777e-17 5.0220355716744632e-16  1.0000000000000002e-01 0.0000000000000000e+00 0.0000000000000000e+00  9.9999999999998659e-02 3.9642228040844005e-17 4.1016909806717914e-16  1.0000000000000002e-01 0.0000000000000000e+00 0.0000000000000000e+00  9.9999999999998770e-02 4.5362228639762284e-16 3.8169259002984204e-16  1.0000000000000002e-01 0.0000000000000000e+00 0.0000000000000000e+00  9.9999999999998979e-02 5.8234683640156923e-16 5.2395420194514590e-16  1.0000000000000002e-01 0.0000000000000000e+00 0.0000000000000000e+00  9.9999999999999048e-02 5.1449247312663359e-16 5.7540404692855902e-16  1.0000000000000002e-01 0.0000000000000000e+00 0.0000000000000000e+00  9.9999999999999173e-02 4.3228751797434830e-16 5.0847292142143439e-16  1.0000000000000002e-01 0.0000000000000000e+00 0.0000000000000000e+00  9.9999999999999353e-02 4.5748442653310372e-16 5.2343488378459285e-16  1.0000000000000002e-01 0.0000000000000000e+00 0.0000000000000000e+00  9.9999999999999631e-02 2.3963835927863042e-16 4.2914911602320549e-16  1.0000000000000001e-01 0.0000000000000000e+00 0.0000000000000000e+00  1.0000000000000002e-01 0.0000000000000000e+00 0.0000000000000000e+00  9.9999999999998646e-02 3.2987310161672123e-16 4.7420341453053839e-16  1.0000000000000002e-01 0.0000000000000000e+00 0.0000000000000000e+00  9.9999999999998923e-02 3.9612835743270379e-16 5.6424171037628592e-16  1.0000000000000002e-01 0.0000000000000000e+00 0.0000000000000000e+00  9.9999999999999103e-02 3.2760609544726104e-16 5.5986300658755076e-16  1.0000000000000002e-01 0.0000000000000000e+00 0.0000000000000000e+00  9.9999999999999284e-02 3.5129419994766275e-16 5.8373789580781859e-16  1.0000000000000002e-01 0.0000000000000000e+00 0.0000000000000000e+00  9.9999999999999631e-02 2.0079810349848075e-16 4.7162367112871085e-16  1.0000000000000001e-01 0.0000000000000000e+00 0.0000000000000000e+00  1.0000000000000002e-01 0.0000000000000000e+00 0.0000000000000000e+00  9.9999999999999312e-02 2.3158963512524986e-16 6.2171039978954160e-16  1.0000000000000002e-01 0.0000000000000000e+00 0.0000000000000000e+00  9.9999999999999395e-02 2.3049000817140353e-16 5.6371272655145920e-16  1.0000000000000002e-01 0.0000000000000000e+00 0.0000000000000000e+00  9.9999999999999631e-02 1.0669972484600577e-16 4.3293463926331906e-16  1.0000000000000001e-01 0.0000000000000000e+00 0.0000000000000000e+00  1.0000000000000002e-01 0.0000000000000000e+00 0.0000000000000000e+00  1.0000000000000001e-01 0.0000000000000000e+00 0.0000000000000000e+00  1.0000000000000002e-01 0.0000000000000000e+00 0.0000000000000000e+00  9.9999999999999631e-02 -2.0817157643180974e-17 -3.7084590807008372e-18  1.0000000000000002e-01 0.0000000000000000e+00 0.0000000000000000e+00  1.0000000000000002e-01 0.0000000000000000e+00 0.0000000000000000e+00  9.9999999999999784e-02 -1.3522225108614441e-16 -8.7699569110658224e-17  9.9999999999999450e-02 1.5621578011525078e-16 2.1445510198157455e-16  1.0000000000000002e-01 0.0000000000000000e+00 0.0000000000000000e+00  9.9999999999999145e-02 1.0865727592790909e-16 1.2854687784285777e-16  1.0000000000000002e-01 0.0000000000000000e+00 0.0000000000000000e+00  9.9999999999998757e-02 2.1457828372303941e-16 2.2160940166486225e-16  1.0000000000000002e-01 0.0000000000000000e+00 0.0000000000000000e+00  9.9999999999998465e-02 1.4528757816507927e-16 1.8270725701555398e-16  1.0000000000000002e-01 0.0000000000000000e+00 0.0000000000000000e+00  9.9999999999998493e-02 2.8355789140886559e-16 2.1558065214414963e-16  1.0000000000000002e-01 0.0000000000000000e+00 0.0000000000000000e+00  9.9999999999998535e-02 3.6573182368706921e-16 2.5227249663950106e-16  1.0000000000000002e-01 0.0000000000000000e+00 0.0000000000000000e+00  9.9999999999998396e-02 1.9497914662865890e-16 1.6669180709989189e-16  1.0000000000000002e-01 0.0000000000000000e+00 0.0000000000000000e+00  9.9999999999998576e-02 2.6414318952792656e-16 2.9543441312151481e-16  1.0000000000000002e-01 0.0000000000000000e+00 0.0000000000000000e+00  9.9999999999998729e-02 3.7842416283590258e-16 3.9853567706050429e-16  1.0000000000000002e-01 0.0000000000000000e+00 0.0000000000000000e+00  9.9999999999998840e-02 4.2346916362799587e-16 5.1596387077528224e-16  1.0000000000000002e-01 0.0000000000000000e+00 0.0000000000000000e+00  9.9999999999999034e-02 5.0018474296763064e-16 6.8306582113664990e-16  1.0000000000000002e-01 0.0000000000000000e+00 0.0000000000000000e+00  9.9999999999999034e-02 4.5762561549171702e-16 6.9396807859148014e-16  1.0000000000000002e-01 0.0000000000000000e+00 0.0000000000000000e+00  9.9999999999999215e-02 4.2985037909790936e-16 5.7415095359611877e-16  1.0000000000000002e-01 0.0000000000000000e+00 0.0000000000000000e+00  9.9999999999999534e-02 3.5570046500275747e-16 3.5709730791012303e-16  1.0000000000000002e-01 0.0000000000000000e+00 0.0000000000000000e+00  1.0000000000000002e-01 0.0000000000000000e+00 0.0000000000000000e+00  1.0000000000000001e-01 0.0000000000000000e+00 0.0000000000000000e+00  9.9999999999999742e-02 4.3616417934843290e-17 -1.3566131589244110e-17  9.9999999999999464e-02 2.6222914129047407e-16 1.9200561582746716e-16  9.9999999999999117e-02 3.1867827286268358e-16 8.3504544796309060e-17  9.9999999999999034e-02 5.6646069307751670e-16 3.0183880647426315e-16  9.9999999999998840e-02 4.1926042102590873e-16 2.2731932023381264e-16  9.9999999999998840e-02 4.1669501115680156e-16 3.2255345838328761e-16  9.9999999999998923e-02 4.0746060356962977e-16 2.0039221523806275e-16  9.9999999999999076e-02 4.7735601264172740e-16 2.0443572831743254e-16  9.9999999999999187e-02 4.8650238660898977e-16 4.6307495033077613e-16  9.9999999999999256e-02 6.4005713224427438e-16 6.4340884073327791e-16  9.9999999999999215e-02 7.1462831887174889e-16 7.4324949459834545e-16  9.9999999999999215e-02 8.0742399091839126e-16 9.3697872926133404e-16  9.9999999999999117e-02 7.5590460921004285e-16 9.6761133022105235e-16  9.9999999999999131e-02 6.0222022605021231e-16 7.1783143109560662e-16  9.9999999999999450e-02 4.2996590274212731e-16 4.6933648080832713e-16  1.0000000000000002e-01 0.0000000000000000e+00 0.0000000000000000e+00  9.9999999999997743e-02 4.3967186665775211e-16 -6.3470235898311869e-18  9.9999999999998021e-02 1.6326185143788436e-16 -2.3889647870224595e-16  9.9999999999997535e-02 5.7181445694484585e-16 -8.1439587726697631e-17  9.9999999999997494e-02 6.6536667536260318e-16 1.8205976038512442e-16  9.9999999999997424e-02 4.9874493346742450e-16 2.0026301915550226e-16  9.9999999999997632e-02 4.6588866091256722e-16 4.1620419385357687e-16  9.9999999999997938e-02 4.1355486920469898e-16 3.8162316806260855e-16  9.9999999999998451e-02 5.8154301256017779e-16 5.7994448988681226e-16  9.9999999999998992e-02 8.3120324220361774e-16 7.7338995827843220e-16  9.9999999999998909e-02 7.2585092161446210e-16 6.8562241254998967e-16  9.9999999999998992e-02 8.6291718083468815e-16 8.8188940361660907e-16  9.9999999999999103e-02 1.0222882361866884e-15 1.0151430665209408e-15  9.9999999999999173e-02 9.4193061411486374e-16 1.1052315261624409e-15  9.9999999999999312e-02 8.1673134345981161e-16 9.8924189535875080e-16  9.9999999999999520e-02 4.5686135483753306e-16 6.2134441396591088e-16  1.0000000000000002e-01 0.0000000000000000e+00 0.0000000000000000e+00  9.9999999999997244e-02 6.5694631456787376e-16 4.7120686749780351e-16  9.9999999999997244e-02 4.1508192320784753e-16 5.8904875661572844e-16  9.9999999999997632e-02 3.0711709388847268e-16 7.2064231327135193e-16  9.9999999999997993e-02 4.8667040315318157e-16 1.0584822999209117e-15  9.9999999999998188e-02 7.5502497598135034e-16 9.4283746422407012e-16  9.9999999999998299e-02 8.0799286308307748e-16 9.6705573308919307e-16  9.9999999999998576e-02 9.4821448769989998e-16 1.0560657331756667e-15  9.9999999999998923e-02 8.7614226570620747e-16 1.1029849344095841e-15  9.9999999999999215e-02 6.9125594600189512e-16 9.7159071586642461e-16  9.9999999999999603e-02 4.7689727023987694e-16 6.7590863097825006e-16  1.0000000000000002e-01 0.0000000000000000e+00 0.0000000000000000e+00  9.9999999999998174e-02 5.5450301839791312e-16 9.7068244589205790e-16  9.9999999999998423e-02 6.5449550996766982e-16 9.4693882374133020e-16  9.9999999999998826e-02 5.9963492325999495e-16 1.0681265634788394e-15  9.9999999999999048e-02 4.3199411447988452e-16 9.8364419745502781e-16  9.9999999999999520e-02 3.4634804833950874e-16 7.0106765453003533e-16  1.0000000000000002e-01 0.0000000000000000e+00 0.0000000000000000e+00  9.9999999999998465e-02 2.7867513642580038e-16 1.0406329052023339e-15  9.9999999999998909e-02 2.2402061869397394e-16 9.6467841524575622e-16  9.9999999999999409e-02 1.1269879655628487e-16 6.3025300518649607e-16  1.0000000000000002e-01 0.0000000000000000e+00 0.0000000000000000e+00  1.0000000000000002e-01 0.0000000000000000e+00 0.0000000000000000e+00  1.0000000000000002e-01 0.0000000000000000e+00 0.0000000000000000e+00  9.9999999999999811e-02 1.3935380493281098e-16 -2.0138906405375291e-17  1.0000000000000002e-01 0.0000000000000000e+00 0.0000000000000000e+00  1.0000000000000002e-01 0.0000000000000000e+00 0.0000000000000000e+00  9.9999999999999922e-02 -1.3005759955416020e-16 -2.1900376980986097e-16  9.9999999999999811e-02 -1.7849702904642800e-17 -1.2618709629924372e-16  9.9999999999999714e-02 -4.4923274662003455e-17 -5.3068758702197618e-17  1.0000000000000002e-01 0.0000000000000000e+00 0.0000000000000000e+00  9.9999999999999672e-02 5.8621588614540332e-17 1.4253714986225364e-16  1.0000000000000002e-01 0.0000000000000000e+00 0.0000000000000000e+00  9.9999999999999548e-02 -4.2779578412222381e-18 1.6508751664723376e-16  1.0000000000000002e-01 0.0000000000000000e+00 0.0000000000000000e+00  9.9999999999999492e-02 2.3821594260724795e-16 3.9322407555355648e-16  1.0000000000000002e-01 0.0000000000000000e+00 0.0000000000000000e+00  9.9999999999999145e-02 1.9425819464049144e-16 3.2530782142659993e-16  1.0000000000000002e-01 0.0000000000000000e+00 0.0000000000000000e+00  9.9999999999998979e-02 2.3300194524766513e-16 2.0226348142345633e-16  1.0000000000000002e-01 0.0000000000000000e+00 0.0000000000000000e+00  9.9999999999998784e-02 2.3936514100505447e-16 1.2468270073352941e-16  1.0000000000000002e-01 0.0000000000000000e+00 0.0000000000000000e+00  9.9999999999998743e-02 2.6972349008055018e-16 3.0869650000201688e-16  1.0000000000000002e-01 0.0000000000000000e+00 0.0000000000000000e+00  9.9999999999998757e-02 3.6561101405760108e-16 4.7379660761233739e-16  1.0000000000000002e-01 0.0000000000000000e+00 0.0000000000000000e+00  9.9999999999998687e-02 4.0671097908121388e-16 4.5702559552510088e-16  1.0000000000000002e-01 0.0000000000000000e+00 0.0000000000000000e+00  9.9999999999998632e-02 4.1183367378800821e-16 4.0254618542385649e-16  1.0000000000000002e-01 0.0000000000000000e+00 0.0000000000000000e+00  9.9999999999998826e-02 4.6609945844141272e-16 5.9756430817587197e-16  1.0000000000000002e-01 0.0000000000000000e+00 0.0000000000000000e+00  9.9999999999999006e-02 5.1766574582828252e-16 7.4253246441743501e-16  1.0000000000000002e-01 0.0000000000000000e+00 0.00000000000