<?xml version="1.0"?>
<VTKFile type="UnstructuredGrid"  version="0.1"  >
<UnstructuredGrid>
<Piece  NumberOfPoints="9261" NumberOfCells="48000">
<Points>
<DataArray  type="Float64"  NumberOfComponents="3"  format="ascii">0 0 0  0.1 0 0  0.2 0 0  0.3 0 0  0.4 0 0  0.5 0 0  0.6 0 0  0.7 0 0  0.8 0 0  0.9 0 0  1 0 0  1.1 0 0  1.2 0 0  1.3 0 0  1.4 0 0  1.5 0 0  1.6 0 0  1.7 0 0  1.8 0 0  1.9 0 0  2 0 0  0 0.1 0  0.1 0.1 0  0.2 0.1 0  0.3 0.1 0  0.4 0.1 0  0.5 0.1 0  0.6 0.1 0  0.7 0.1 0  0.8 0.1 0  0.9 0.1 0  1 0.1 0  1.1 0.1 0  1.2 0.1 0  1.3 0.1 0  1.4 0.1 0  1.5 0.1 0  1.6 0.1 0  1.7 0.1 0  1.8 0.1 0  1.9 0.1 0  2 0.1 0  0 0.2 0  0.1 0.2 0  0.2 0.2 0  0.3 0.2 0  0.4 0.2 0  0.5 0.2 0  0.6 0.2 0  0.7 0.2 0  0.8 0.2 0  0.9 0.2 0  1 0.2 0  1.1 0.2 0  1.2 0.2 0  1.3 0.2 0  1.4 0.2 0  1.5 0.2 0  1.6 0.2 0  1.7 0.2 0  1.8 0.2 0  1.9 0.2 0  2 0.2 0  0 0.3 0  0.1 0.3 0  0.2 0.3 0  0.3 0.3 0  0.4 0.3 0  0.5 0.3 0  0.6 0.3 0  0.7 0.3 0  0.8 0.3 0  0.9 0.3 0  1 0.3 0  1.1 0.3 0  1.2 0.3 0  1.3 0.3 0  1.4 0.3 0  1.5 0.3 0  1.6 0.3 0  1.7 0.3 0  1.8 0.3 0  1.9 0.3 0  2 0.3 0  0 0.4 0  0.1 0.4 0  0.2 0.4 0  0.3 0.4 0  0.4 0.4 0  0.5 0.4 0  0.6 0.4 0  0.7 0.4 0  0.8 0.4 0  0.9 0.4 0  1 0.4 0  1.1 0.4 0  1.2 0.4 0  1.3 0.4 0  1.4 0.4 0  1.5 0.4 0  1.6 0.4 0  1.7 0.4 0  1.8 0.4 0  1.9 0.4 0  2 0.4 0  0 0.5 0  0.1 0.5 0  0.2 0.5 0  0.3 0.5 0  0.4 0.5 0  0.5 0.5 0  0.6 0.5 0  0.7 0.5 0  0.8 0.5 0  0.9 0.5 0  1 0.5 0  1.1 0.5 0  1.2 0.5 0  1.3 0.5 0  1.4 0.5 0  1.5 0.5 0  1.6 0.5 0  1.7 0.5 0  1.8 0.5 0  1.9 0.5 0  2 0.5 0  0 0.6 0  0.1 0.6 0  0.2 0.6 0  0.3 0.6 0  0.4 0.6 0  0.5 0.6 0  0.6 0.6 0  0.7 0.6 0  0.8 0.6 0  0.9 0.6 0  1 0.6 0  1.1 0.6 0  1.2 0.6 0  1.3 0.6 0  1.4 0.6 0  1.5 0.6 0  1.6 0.6 0  1.7 0.6 0  1.8 0.6 0  1.9 0.6 0  2 0.6 0  0 0.7 0  0.1 0.7 0  0.2 0.7 0  0.3 0.7 0  0.4 0.7 0  0.5 0.7 0  0.6 0.7 0  0.7 0.7 0  0.8 0.7 0  0.9 0.7 0  1 0.7 0  1.1 0.7 0  1.2 0.7 0  1.3 0.7 0  1.4 0.7 0  1.5 0.7 0  1.6 0.7 0  1.7 0.7 0  1.8 0.7 0  1.9 0.7 0  2 0.7 0  0 0.8 0  0.1 0.8 0  0.2 0.8 0  0.3 0.8 0  0.4 0.8 0  0.5 0.8 0  0.6 0.8 0  0.7 0.8 0  0.8 0.8 0  0.9 0.8 0  1 0.8 0  1.1 0.8 0  1.2 0.8 0  1.3 0.8 0  1.4 0.8 0  1.5 0.8 0  1.6 0.8 0  1.7 0.8 0  1.8 0.8 0  1.9 0.8 0  2 0.8 0  0 0.9 0  0.1 0.9 0  0.2 0.9 0  0.3 0.9 0  0.4 0.9 0  0.5 0.9 0  0.6 0.9 0  0.7 0.9 0  0.8 0.9 0  0.9 0.9 0  1 0.9 0  1.1 0.9 0  1.2 0.9 0  1.3 0.9 0  1.4 0.9 0  1.5 0.9 0  1.6 0.9 0  1.7 0.9 0  1.8 0.9 0  1.9 0.9 0  2 0.9 0  0 1 0  0.1 1 0  0.2 1 0  0.3 1 0  0.4 1 0  0.5 1 0  0.6 1 0  0.7 1 0  0.8 1 0  0.9 1 0  1 1 0  1.1 1 0  1.2 1 0  1.3 1 0  1.4 1 0  1.5 1 0  1.6 1 0  1.7 1 0  1.8 1 0  1.9 1 0  2 1 0  0 1.1 0  0.1 1.1 0  0.2 1.1 0  0.3 1.1 0  0.4 1.1 0  0.5 1.1 0  0.6 1.1 0  0.7 1.1 0  0.8 1.1 0  0.9 1.1 0  1 1.1 0  1.1 1.1 0  1.2 1.1 0  1.3 1.1 0  1.4 1.1 0  1.5 1.1 0  1.6 1.1 0  1.7 1.1 0  1.8 1.1 0  1.9 1.1 0  2 1.1 0  0 1.2 0  0.1 1.2 0  0.2 1.2 0  0.3 1.2 0  0.4 1.2 0  0.5 1.2 0  0.6 1.2 0  0.7 1.2 0  0.8 1.2 0  0.9 1.2 0  1 1.2 0  1.1 1.2 0  1.2 1.2 0  1.3 1.2 0  1.4 1.2 0  1.5 1.2 0  1.6 1.2 0  1.7 1.2 0  1.8 1.2 0  1.9 1.2 0  2 1.2 0  0 1.3 0  0.1 1.3 0  0.2 1.3 0  0.3 1.3 0  0.4 1.3 0  0.5 1.3 0  0.6 1.3 0  0.7 1.3 0  0.8 1.3 0  0.9 1.3 0  1 1.3 0  1.1 1.3 0  1.2 1.3 0  1.3 1.3 0  1.4 1.3 0  1.5 1.3 0  1.6 1.3 0  1.7 1.3 0  1.8 1.3 0  1.9 1.3 0  2 1.3 0  0 1.4 0  0.1 1.4 0  0.2 1.4 0  0.3 1.4 0  0.4 1.4 0  0.5 1.4 0  0.6 1.4 0  0.7 1.4 0  0.8 1.4 0  0.9 1.4 0  1 1.4 0  1.1 1.4 0  1.2 1.4 0  1.3 1.4 0  1.4 1.4 0  1.5 1.4 0  1.6 1.4 0  1.7 1.4 0  1.8 1.4 0  1.9 1.4 0  2 1.4 0  0 1.5 0  0.1 1.5 0  0.2 1.5 0  0.3 1.5 0  0.4 1.5 0  0.5 1.5 0  0.6 1.5 0  0.7 1.5 0  0.8 1.5 0  0.9 1.5 0  1 1.5 0  1.1 1.5 0  1.2 1.5 0  1.3 1.5 0  1.4 1.5 0  1.5 1.5 0  1.6 1.5 0  1.7 1.5 0  1.8 1.5 0  1.9 1.5 0  2 1.5 0  0 1.6 0  0.1 1.6 0  0.2 1.6 0  0.3 1.6 0  0.4 1.6 0  0.5 1.6 0  0.6 1.6 0  0.7 1.6 0  0.8 1.6 0  0.9 1.6 0  1 1.6 0  1.1 1.6 0  1.2 1.6 0  1.3 1.6 0  1.4 1.6 0  1.5 1.6 0  1.6 1.6 0  1.7 1.6 0  1.8 1.6 0  1.9 1.6 0  2 1.6 0  0 1.7 0  0.1 1.7 0  0.2 1.7 0  0.3 1.7 0  0.4 1.7 0  0.5 1.7 0  0.6 1.7 0  0.7 1.7 0  0.8 1.7 0  0.9 1.7 0  1 1.7 0  1.1 1.7 0  1.2 1.7 0  1.3 1.7 0  1.4 1.7 0  1.5 1.7 0  1.6 1.7 0  1.7 1.7 0  1.8 1.7 0  1.9 1.7 0  2 1.7 0  0 1.8 0  0.1 1.8 0  0.2 1.8 0  0.3 1.8 0  0.4 1.8 0  0.5 1.8 0  0.6 1.8 0  0.7 1.8 0  0.8 1.8 0  0.9 1.8 0  1 1.8 0  1.1 1.8 0  1.2 1.8 0  1.3 1.8 0  1.4 1.8 0  1.5 1.8 0  1.6 1.8 0  1.7 1.8 0  1.8 1.8 0  1.9 1.8 0  2 1.8 0  0 1.9 0  0.1 1.9 0  0.2 1.9 0  0.3 1.9 0  0.4 1.9 0  0.5 1.9 0  0.6 1.9 0  0.7 1.9 0  0.8 1.9 0  0.9 1.9 0  1 1.9 0  1.1 1.9 0  1.2 1.9 0  1.3 1.9 0  1.4 1.9 0  1.5 1.9 0  1.6 1.9 0  1.7 1.9 0  1.8 1.9 0  1.9 1.9 0  2 1.9 0  0 2 0  0.1 2 0  0.2 2 0  0.3 2 0  0.4 2 0  0.5 2 0  0.6 2 0  0.7 2 0  0.8 2 0  0.9 2 0  1 2 0  1.1 2 0  1.2 2 0  1.3 2 0  1.4 2 0  1.5 2 0  1.6 2 0  1.7 2 0  1.8 2 0  1.9 2 0  2 2 0  0 0 0.05  0.1 0 0.05  0.2 0 0.05  0.3 0 0.05  0.4 0 0.05  0.5 0 0.05  0.6 0 0.05  0.7 0 0.05  0.8 0 0.05  0.9 0 0.05  1 0 0.05  1.1 0 0.05  1.2 0 0.05  1.3 0 0.05  1.4 0 0.05  1.5 0 0.05  1.6 0 0.05  1.7 0 0.05  1.8 0 0.05  1.9 0 0.05  2 0 0.05  0 0.1 0.05  0.1 0.1 0.05  0.2 0.1 0.05  0.3 0.1 0.05  0.4 0.1 0.05  0.5 0.1 0.05  0.6 0.1 0.05  0.7 0.1 0.05  0.8 0.1 0.05  0.9 0.1 0.05  1 0.1 0.05  1.1 0.1 0.05  1.2 0.1 0.05  1.3 0.1 0.05  1.4 0.1 0.05  1.5 0.1 0.05  1.6 0.1 0.05  1.7 0.1 0.05  1.8 0.1 0.05  1.9 0.1 0.05  2 0.1 0.05  0 0.2 0.05  0.1 0.2 0.05  0.2 0.2 0.05  0.3 0.2 0.05  0.4 0.2 0.05  0.5 0.2 0.05  0.6 0.2 0.05  0.7 0.2 0.05  0.8 0.2 0.05  0.9 0.2 0.05  1 0.2 0.05  1.1 0.2 0.05  1.2 0.2 0.05  1.3 0.2 0.05  1.4 0.2 0.05  1.5 0.2 0.05  1.6 0.2 0.05  1.7 0.2 0.05  1.8 0.2 0.05  1.9 0.2 0.05  2 0.2 0.05  0 0.3 0.05  0.1 0.3 0.05  0.2 0.3 0.05  0.3 0.3 0.05  0.4 0.3 0.05  0.5 0.3 0.05  0.6 0.3 0.05  0.7 0.3 0.05  0.8 0.3 0.05  0.9 0.3 0.05  1 0.3 0.05  1.1 0.3 0.05  1.2 0.3 0.05  1.3 0.3 0.05  1.4 0.3 0.05  1.5 0.3 0.05  1.6 0.3 0.05  1.7 0.3 0.05  1.8 0.3 0.05  1.9 0.3 0.05  2 0.3 0.05  0 0.4 0.05  0.1 0.4 0.05  0.2 0.4 0.05  0.3 0.4 0.05  0.4 0.4 0.05  0.5 0.4 0.05  0.6 0.4 0.05  0.7 0.4 0.05  0.8 0.4 0.05  0.9 0.4 0.05  1 0.4 0.05  1.1 0.4 0.05  1.2 0.4 0.05  1.3 0.4 0.05  1.4 0.4 0.05  1.5 0.4 0.05  1.6 0.4 0.05  1.7 0.4 0.05  1.8 0.4 0.05  1.9 0.4 0.05  2 0.4 0.05  0 0.5 0.05  0.1 0.5 0.05  0.2 0.5 0.05  0.3 0.5 0.05  0.4 0.5 0.05  0.5 0.5 0.05  0.6 0.5 0.05  0.7 0.5 0.05  0.8 0.5 0.05  0.9 0.5 0.05  1 0.5 0.05  1.1 0.5 0.05  1.2 0.5 0.05  1.3 0.5 0.05  1.4 0.5 0.05  1.5 0.5 0.05  1.6 0.5 0.05  1.7 0.5 0.05  1.8 0.5 0.05  1.9 0.5 0.05  2 0.5 0.05  0 0.6 0.05  0.1 0.6 0.05  0.2 0.6 0.05  0.3 0.6 0.05  0.4 0.6 0.05  0.5 0.6 0.05  0.6 0.6 0.05  0.7 0.6 0.05  0.8 0.6 0.05  0.9 0.6 0.05  1 0.6 0.05  1.1 0.6 0.05  1.2 0.6 0.05  1.3 0.6 0.05  1.4 0.6 0.05  1.5 0.6 0.05  1.6 0.6 0.05  1.7 0.6 0.05  1.8 0.6 0.05  1.9 0.6 0.05  2 0.6 0.05  0 0.7 0.05  0.1 0.7 0.05  0.2 0.7 0.05  0.3 0.7 0.05  0.4 0.7 0.05  0.5 0.7 0.05  0.6 0.7 0.05  0.7 0.7 0.05  0.8 0.7 0.05  0.9 0.7 0.05  1 0.7 0.05  1.1 0.7 0.05  1.2 0.7 0.05  1.3 0.7 0.05  1.4 0.7 0.05  1.5 0.7 0.05  1.6 0.7 0.05  1.7 0.7 0.05  1.8 0.7 0.05  1.9 0.7 0.05  2 0.7 0.05  0 0.8 0.05  0.1 0.8 0.05  0.2 0.8 0.05  0.3 0.8 0.05  0.4 0.8 0.05  0.5 0.8 0.05  0.6 0.8 0.05  0.7 0.8 0.05  0.8 0.8 0.05  0.9 0.8 0.05  1 0.8 0.05  1.1 0.8 0.05  1.2 0.8 0.05  1.3 0.8 0.05  1.4 0.8 0.05  1.5 0.8 0.05  1.6 0.8 0.05  1.7 0.8 0.05  1.8 0.8 0.05  1.9 0.8 0.05  2 0.8 0.05  0 0.9 0.05  0.1 0.9 0.05  0.2 0.9 0.05  0.3 0.9 0.05  0.4 0.9 0.05  0.5 0.9 0.05  0.6 0.9 0.05  0.7 0.9 0.05  0.8 0.9 0.05  0.9 0.9 0.05  1 0.9 0.05  1.1 0.9 0.05  1.2 0.9 0.05  1.3 0.9 0.05  1.4 0.9 0.05  1.5 0.9 0.05  1.6 0.9 0.05  1.7 0.9 0.05  1.8 0.9 0.05  1.9 0.9 0.05  2 0.9 0.05  0 1 0.05  0.1 1 0.05  0.2 1 0.05  0.3 1 0.05  0.4 1 0.05  0.5 1 0.05  0.6 1 0.05  0.7 1 0.05  0.8 1 0.05  0.9 1 0.05  1 1 0.05  1.1 1 0.05  1.2 1 0.05  1.3 1 0.05  1.4 1 0.05  1.5 1 0.05  1.6 1 0.05  1.7 1 0.05  1.8 1 0.05  1.9 1 0.05  2 1 0.05  0 1.1 0.05  0.1 1.1 0.05  0.2 1.1 0.05  0.3 1.1 0.05  0.4 1.1 0.05  0.5 1.1 0.05  0.6 1.1 0.05  0.7 1.1 0.05  0.8 1.1 0.05  0.9 1.1 0.05  1 1.1 0.05  1.1 1.1 0.05  1.2 1.1 0.05  1.3 1.1 0.05  1.4 1.1 0.05  1.5 1.1 0.05  1.6 1.1 0.05  1.7 1.1 0.05  1.8 1.1 0.05  1.9 1.1 0.05  2 1.1 0.05  0 1.2 0.05  0.1 1.2 0.05  0.2 1.2 0.05  0.3 1.2 0.05  0.4 1.2 0.05  0.5 1.2 0.05  0.6 1.2 0.05  0.7 1.2 0.05  0.8 1.2 0.05  0.9 1.2 0.05  1 1.2 0.05  1.1 1.2 0.05  1.2 1.2 0.05  1.3 1.2 0.05  1.4 1.2 0.05  1.5 1.2 0.05  1.6 1.2 0.05  1.7 1.2 0.05  1.8 1.2 0.05  1.9 1.2 0.05  2 1.2 0.05  0 1.3 0.05  0.1 1.3 0.05  0.2 1.3 0.05  0.3 1.3 0.05  0.4 1.3 0.05  0.5 1.3 0.05  0.6 1.3 0.05  0.7 1.3 0.05  0.8 1.3 0.05  0.9 1.3 0.05  1 1.3 0.05  1.1 1.3 0.05  1.2 1.3 0.05  1.3 1.3 0.05  1.4 1.3 0.05  1.5 1.3 0.05  1.6 1.3 0.05  1.7 1.3 0.05  1.8 1.3 0.05  1.9 1.3 0.05  2 1.3 0.05  0 1.4 0.05  0.1 1.4 0.05  0.2 1.4 0.05  0.3 1.4 0.05  0.4 1.4 0.05  0.5 1.4 0.05  0.6 1.4 0.05  0.7 1.4 0.05  0.8 1.4 0.05  0.9 1.4 0.05  1 1.4 0.05  1.1 1.4 0.05  1.2 1.4 0.05  1.3 1.4 0.05  1.4 1.4 0.05  1.5 1.4 0.05  1.6 1.4 0.05  1.7 1.4 0.05  1.8 1.4 0.05  1.9 1.4 0.05  2 1.4 0.05  0 1.5 0.05  0.1 1.5 0.05  0.2 1.5 0.05  0.3 1.5 0.05  0.4 1.5 0.05  0.5 1.5 0.05  0.6 1.5 0.05  0.7 1.5 0.05  0.8 1.5 0.05  0.9 1.5 0.05  1 1.5 0.05  1.1 1.5 0.05  1.2 1.5 0.05  1.3 1.5 0.05  1.4 1.5 0.05  1.5 1.5 0.05  1.6 1.5 0.05  1.7 1.5 0.05  1.8 1.5 0.05  1.9 1.5 0.05  2 1.5 0.05  0 1.6 0.05  0.1 1.6 0.05  0.2 1.6 0.05  0.3 1.6 0.05  0.4 1.6 0.05  0.5 1.6 0.05  0.6 1.6 0.05  0.7 1.6 0.05  0.8 1.6 0.05  0.9 1.6 0.05  1 1.6 0.05  1.1 1.6 0.05  1.2 1.6 0.05  1.3 1.6 0.05  1.4 1.6 0.05  1.5 1.6 0.05  1.6 1.6 0.05  1.7 1.6 0.05  1.8 1.6 0.05  1.9 1.6 0.05  2 1.6 0.05  0 1.7 0.05  0.1 1.7 0.05  0.2 1.7 0.05  0.3 1.7 0.05  0.4 1.7 0.05  0.5 1.7 0.05  0.6 1.7 0.05  0.7 1.7 0.05  0.8 1.7 0.05  0.9 1.7 0.05  1 1.7 0.05  1.1 1.7 0.05  1.2 1.7 0.05  1.3 1.7 0.05  1.4 1.7 0.05  1.5 1.7 0.05  1.6 1.7 0.05  1.7 1.7 0.05  1.8 1.7 0.05  1.9 1.7 0.05  2 1.7 0.05  0 1.8 0.05  0.1 1.8 0.05  0.2 1.8 0.05  0.3 1.8 0.05  0.4 1.8 0.05  0.5 1.8 0.05
[...]
<PointData  Vectors="f_9"> 
<DataArray  type="Float64"  Name="f_9"  NumberOfComponents="3" format="ascii">-1.0000000000000001e-01 0.0000000000000000e+00 0.0000000000000000e+00  -9.3182582641633815e-02 9.4418592516015611e-03 7.7323803770528981e-03  -8.7871305198208072e-02 1.4639225629067443e-02 1.0693550838188700e-02  -8.2974365261658647e-02 1.8260530882456948e-02 1.2005861295307625e-02  -7.8176644567034617e-02 2.0932409630763534e-02 1.2581735318566061e-02  -7.3353594724763507e-02 2.2924902259444005e-02 1.2806276555595552e-02  -6.8456982325469110e-02 2.4391313545978992e-02 1.2868168526241142e-02  -6.3474366656724207e-02 2.5429787443851798e-02 1.2865229387327780e-02  -5.8411156566540702e-02 2.6105306918017747e-02 1.2848577202812132e-02  -5.3281850324022682e-02 2.6459044505303245e-02 1.2843593271394562e-02  -4.8105370447163780e-02 2.6512961457980488e-02 1.2860049150684408e-02  -4.2902135041754080e-02 2.6272423434660262e-02 1.2896248956366948e-02  -3.7691625421212668e-02 2.5727859802038767e-02 1.2939276023520853e-02  -3.2489788552478124e-02 2.4855762326774149e-02 1.2962145240921775e-02  -2.7306123815873211e-02 2.3618800519624585e-02 1.2917797975569519e-02  -2.2141266194996727e-02 2.1963971577758423e-02 1.2728874420913052e-02  -1.6988577414171920e-02 1.9815396085938870e-02 1.2270258703075894e-02  -1.1851912732702110e-02 1.7051011608181069e-02 1.1336294676610159e-02  -6.8213715701195719e-03 1.3426605680924264e-02 9.5689603474073404e-03  -2.3461353204348653e-03 8.3210243136941260e-03 6.2762829946939030e-03  0.0000000000000000e+00 0.0000000000000000e+00 0.0000000000000000e+00  -1.0000000000000001e-01 0.0000000000000000e+00 0.0000000000000000e+00  -9.5332850460946014e-02 6.7261671113462819e-03 8.0003532101758645e-03  -8.9983216437265229e-02 1.2148252165907840e-02 1.0755542563112752e-02  -8.4890668190997748e-02 1.5904897413681899e-02 1.2138600885530450e-02  -7.9842204109286399e-02 1.8624892570048308e-02 1.2793610776932123e-02  -7.4743716600345900e-02 2.0622384935189003e-02 1.3076632392920525e-02  -6.9564682587082219e-02 2.2074494868784066e-02 1.3175980151092542e-02  -6.4302390025168632e-02 2.3092504626011923e-02 1.3193738520225472e-02  -5.8966657451708232e-02 2.3749016254744675e-02 1.3185397377821102e-02  -5.3573302528600368e-02 2.4089773601739754e-02 1.3179655149902200e-02  -4.8141407710521021e-02 2.4139498344797537e-02 1.3188283044574480e-02  -4.2692210994648268e-02 2.3905097189559955e-02 1.3210326786551489e-02  -3.7248588578235167e-02 2.3377532599579642e-02 1.3232555213187088e-02  -3.1834659287328267e-02 2.2532812589435479e-02 1.3226894989678734e-02  -2.6475472977380128e-02 2.1332070110993879e-02 1.3144773059761328e-02  -2.1197422167959529e-02 1.9720128473124252e-02 1.2907315633338122e-02  -1.6031728724730201e-02 1.7620706087288985e-02 1.2388494468418085e-02  -1.1028552016304326e-02 1.4922927814683129e-02 1.1383691639634236e-02  -6.3065681084946354e-03 1.1442515191205168e-02 9.5430904547176721e-03  -2.2249655644050090e-03 6.7995616638777670e-03 6.2105996093049700e-03  0.0000000000000000e+00 0.0000000000000000e+00 0.0000000000000000e+00  -1.0000000000000001e-01 0.0000000000000000e+00 0.0000000000000000e+00  -9.5750081659222927e-02 5.3409936002045723e-03 7.7031553110829343e-03  -9.1248598587663807e-02 9.8223080956482273e-03 1.1331461005664189e-02  -8.6261443162787527e-02 1.3514482730160409e-02 1.2602202221956606e-02  -8.1127100629798776e-02 1.6227840781149010e-02 1.3223926010967267e-02  -7.5867780095050574e-02 1.8209325509671224e-02 1.3495996052827440e-02  -7.0493689834776760e-02 1.9639357441729902e-02 1.3589487840871946e-02  -6.5021848583619521e-02 2.0635924718504759e-02 1.3601783521810927e-02  -5.9473039703032006e-02 2.1276321288616864e-02 1.3587463205347587e-02  -5.3869755913844158e-02 2.1609440928837036e-02 1.3575245902199089e-02  -4.8235818202029719e-02 2.1662348953914407e-02 1.3576824027189060e-02  -4.2596839574916952e-02 2.1443975460752517e-02 1.3590702832289962e-02  -3.6980954303980726e-02 2.0947276289297604e-02 1.3602565342726381e-02  -3.1419516050547276e-02 2.0150429533818962e-02 1.3582754519062643e-02  -2.5947741761718362e-02 1.9017199169860152e-02 1.3480739679476633e-02  -2.0605754674235914e-02 1.7496202407756466e-02 1.3215522028006721e-02  -1.5441754043041817e-02 1.5518152302330052e-02 1.2659180830409348e-02  -1.0523044657038301e-02 1.2988533590031971e-02 1.1606396979761189e-02  -5.9744545214386029e-03 9.7683596749075802e-03 9.7099585896385562e-03  -2.1163958497454763e-03 5.6179184800706728e-03 6.3191696065525412e-03  0.0000000000000000e+00 0.0000000000000000e+00 0.0000000000000000e+00  -1.0000000000000001e-01 0.0000000000000000e+00 0.0000000000000000e+00  -9.5889177247273777e-02 4.3482339927405876e-03 7.6764393116350600e-03  -9.1716425696430140e-02 8.0687397397898077e-03 1.1414232437142530e-02  -8.7116481625863842e-02 1.1246020653952568e-02 1.3134151870728590e-02  -8.2061502900410130e-02 1.3815732975270879e-02 1.3734132506133586e-02  -7.6750271965052561e-02 1.5731765344519078e-02 1.3977686458692731e-02  -7.1261146908274273e-02 1.7119329666274514e-02 1.4047178519265768e-02  -6.5642404285022521e-02 1.8086546402212422e-02 1.4039992940663076e-02  -5.9932069306013150e-02 1.8709644347350007e-02 1.4010169306281324e-02  -5.4163517807644709e-02 1.9038350033914395e-02 1.3985923423958642e-02  -4.8368352389222526e-02 1.9101188547702926e-02 1.3978287910335740e-02  -4.2578609002524859e-02 1.8909043133357149e-02 1.3984806668420589e-02  -3.6828579637649538e-02 1.8457420824317661e-02 1.3989833527657749e-02  -3.1156245794206304e-02 1.7727838054865667e-02 1.3961990613076024e-02  -2.5604364284852160e-02 1.6688512584137370e-02 1.3848622164378908e-02  -2.0221556852288755e-02 1.5294316245094301e-02 1.3566178647044180e-02  -1.5064777850665323e-02 1.3485625911297639e-02 1.2983724470847786e-02  -1.0207961676215641e-02 1.1185084357507438e-02 1.1892364135427816e-02  -5.7738475212685911e-03 8.2896864346504763e-03 9.9401410028406769e-03  -2.0541004163206027e-03 4.6500888218328120e-03 6.4663994594823587e-03  0.0000000000000000e+00 0.0000000000000000e+00 0.0000000000000000e+00  -1.0000000000000001e-01 0.0000000000000000e+00 0.0000000000000000e+00  -9.5945618374326677e-02 3.5365862085843564e-03 7.7308143574245491e-03  -9.1927779033125434e-02 6.6064225163267399e-03 1.1529310314127973e-02  -8.7536595494782446e-02 9.2650472951015320e-03 1.3383734114572289e-02  -8.2673094370206132e-02 1.1487535783852122e-02 1.4195866727346483e-02  -7.7403715101490425e-02 1.3250050881557963e-02 1.4443908298270962e-02  -7.1871811844873845e-02 1.4555404316212776e-02 1.4496396668652514e-02  -6.6163472936525788e-02 1.5474948769884192e-02 1.4469455149533419e-02  -6.0338628373288211e-02 1.6073526609870686e-02 1.4422050880136112e-02  -5.4444636237514082e-02 1.6397447564432038e-02 1.4383782808989895e-02  -4.8522993627218014e-02 1.6474848549808015e-02 1.4365733792472061e-02  -4.2613491808030923e-02 1.6317820443374390e-02 1.4364782109749830e-02  -3.6757129354051662e-02 1.5924288362309968e-02 1.4364101592231790e-02  -3.0998163787967572e-02 1.5279389965741850e-02 1.4330669318145297e-02  -2.5385460043608272e-02 1.4356397326838034e-02 1.4209678276985091e-02  -1.9973445636524617e-02 1.3117222331068514e-02 1.3914790089100130e-02  -1.4823822074215884e-02 1.1512471608778857e-02 1.3311387033257035e-02  -1.0012247150489966e-02 9.4809260147506753e-03 1.2185524996376807e-02  -5.6555315141899390e-03 6.9482699263948905e-03 1.0177850955292859e-02  -2.0211467966053634e-03 3.8250079038359358e-03 6.6153854670640624e-03  0.0000000000000000e+00 0.0000000000000000e+00 0.0000000000000000e+00  -1.0000000000000001e-01 0.0000000000000000e+00 0.0000000000000000e+00  -9.5968479709284613e-02 2.8296734272071078e-03 7.8042069816666674e-03  -9.2034898061124096e-02 5.3110664054061086e-03 1.1650685623492765e-02  -8.7761619097069740e-02 7.4768811764844090e-03 1.3577240742398132e-02  -8.3024748287639533e-02 9.3182753154859056e-03 1.4484007745060683e-02  -7.7850769846085119e-02 1.0823652082646086e-02 1.4834071041991356e-02  -7.2332813614679400e-02 1.1990404071688870e-02 1.4895348969156990e-02  -6.6584355203028051e-02 1.2832883462729145e-02 1.4859418437819134e-02  -6.0687032793017702e-02 1.3392658847318935e-02 1.4799103722561643e-02  -5.4703389769056303e-02 1.3706789442017794e-02 1.4748824760370857e-02  -4.8685918827598790e-02 1.3800190444705001e-02 1.4721269209148966e-02  -4.2682906080221565e-02 1.3684757562558107e-02 1.4713442018077793e-02  -3.6742349851288665e-02 1.3360149128153625e-02 1.4707780408514937e-02  -3.0914557816606250e-02 1.2814820648031909e-02 1.4669875649272295e-02  -2.5253684056720998e-02 1.2026981523486666e-02 1.4542900628199745e-02  -1.9818500602866360e-02 1.0965455701774745e-02 1.4237731650208049e-02  -1.4673401831099957e-02 9.5905571580088313e-03 1.3615922898674688e-02  -9.8934724014015079e-03 7.8552825830191866e-03 1.2458213166189246e-02  -5.5883436467312891e-03 5.7077318372187038e-03 1.0397797118184332e-02  -2.0056016114660376e-03 3.0979170613576012e-03 6.7509283929550103e-03  0.0000000000000000e+00 0.0000000000000000e+00 0.0000000000000000e+00  -1.0000000000000001e-01 0.0000000000000000e+00 0.0000000000000000e+00  -9.5976360526150856e-02 2.1899857066383396e-03 7.8729054108791219e-03  -9.2092372275872122e-02 4.1217077258966887e-03 1.1758223557706561e-02  -8.7890568824466719e-02 5.8164093611013648e-03 1.3729949561790718e-02  -8.3234839703712205e-02 7.2738413010261542e-03 1.4692848738171903e-02  -7.8134426088565065e-02 8.4891977603297041e-03 1.5102111200824787e-02  -7.2661234863843988e-02 9.4596892229182501e-03 1.5214865657947656e-02  -6.6909813342510199e-02 1.0188980470134199e-02 1.5187041085164076e-02  -6.0975162120124125e-02 1.0689644805018496e-02 1.5123052492175390e-02  -5.4933050376730186e-02 1.0984324908733880e-02 1.5065935615354836e-02  -4.8846658843507869e-02 1.1091549489349931e-02 1.5031840458462759e-02  -4.2772807335607531e-02 1.1021206476101716e-02 1.5018914695980087e-02  -3.6766481803756468e-02 1.0773623200249705e-02 1.5009465514902134e-02  -3.0883822348265876e-02 1.0339886297517559e-02 1.4968087529262644e-02  -2.5183776624053415e-02 9.7025911234536692e-03 1.4836204365946347e-02  -1.9728672921638653e-02 8.8368305583046754e-03 1.4522126821148252e-02  -1.4584599773381399e-02 7.7115390659867541e-03 1.3883831503650657e-02  -9.8251793852369342e-03 6.2916435891054783e-03 1.2697189161336969e-02  -5.5530659922663570e-03 4.5422758306646223e-03 1.0588975353704720e-02  -2.0001121549075435e-03 2.4390423166448789e-03 6.8670977522453215e-03  0.0000000000000000e+00 0.0000000000000000e+00 0.0000000000000000e+00  -1.0000000000000001e-01 0.0000000000000000e+00 0.0000000000000000e+00  -9.5978104988525728e-02 1.5952264089827359e-03 7.9271373114950684e-03  -9.2124582054319393e-02 3.0026472599969118e-03 1.1841324285008281e-02  -8.7968211516401357e-02 4.2422001568874308e-03 1.3842317533109268e-02  -8.3365728261733676e-02 5.3195525806284680e-03 1.4840416268253874e-02  -7.8317811954327868e-02 6.2336722240049058e-03 1.5288383455981621e-02  -7.2885385278240775e-02 6.9820540847047100e-03 1.5437463087557042e-02  -6.7152082726943702e-02 7.5640800935850650e-03 1.5437651477363701e-02  -6.1206302201631743e-02 7.9826419350609613e-03 1.5380825997092337e-02  -5.5131342317851592e-02 8.2447305452764772e-03 1.5323748350140776e-02  -4.8998964335316163e-02 8.3602780821273471e-03 1.5287514368141939e-02  -4.2873685929098383e-02 8.3354593402573136e-03 1.5272355358010262e-02  -3.6817071080378835e-02 8.1700876860582375e-03 1.5261065644849935e-02  -3.0890784712837703e-02 7.8570027327875790e-03 1.5217678455542278e-02  -2.5158231848128647e-02 7.3823991379437046e-03 1.5082219529643210e-02  -1.9684903137531646e-02 6.7267262260005609e-03 1.4760791910396875e-02  -1.4538207054766807e-02 5.8661979434059524e-03 1.4108274374456345e-02  -9.7902244956709055e-03 4.7753495662685589e-03 1.2896452927099789e-02  -5.5375822998259385e-03 3.4318630008001155e-03 1.0747058134598291e-02  -2.0001572984196798e-03 1.8274027822643233e-03 6.9620066526811632e-03  0.0000000000000000e+00 0.0000000000000000e+00 0.0000000000000000e+00  -1.0000000000000001e-01 0.0000000000000000e+00 0.0000000000000000e+00  -9.5978329505798154e-02 1.0301621728112794e-03 7.9627467542812119e-03  -9.2143905370306173e-02 1.9297534874468110e-03 1.1894682439278626e-02  -8.8016942512407034e-02 2.7255473704154475e-03 1.3913122767058380e-02  -8.3450214910519419e-02 3.4279291889369448e-03 1.4932916372419149e-02  -7.8439868728110679e-02 4.0377618820167790e-03 1.5406157816479834e-02  -7.3040778137280826e-02 4.5521344600367546e-03 1.5581131570983888e-02  -6.7329719152007084e-02 4.9678910113890714e-03 1.5604199547659845e-02  -6.1389206219920167e-02 5.2834031489163245e-03 1.5564396579991946e-02  -5.5300854005931696e-02 5.4984050175742229e-03 1.5514139905084320e-02  -4.9141194824863364e-02 5.6143354421357141e-03 1.5480667446109583e-02  -4.2980669194135783e-02 5.6327351885104501e-03 1.5466818643535820e-02  -3.6886551537033657e-02 5.5519463263326236e-03 1.5456340394767619e-02  -3.0925573332893787e-02 5.3657022031368970e-03 1.5413087648359089e-02  -2.5165331329233102e-02 5.0629445017369538e-03 1.5276039882034550e-02  -1.9674334865930541e-02 4.6284710651006509e-03 1.4949492110976296e-02  -1.4521338033891041e-02 4.0443769646651816e-03 1.4285784204484167e-02  -9.7772889810933458e-03 3.2926369610124053e-03 1.3053488746801054e-02  -5.5340990707476827e-03 2.3598615391125385e-03 1.0870666663771922e-02  -2.0029094370151855e-03 1.2473429161674926e-03 7.0353376728529149e-03  0.0000000000000000e+00 0.0000000000000000e+00 0.0000000000000000e+00  -1.0000000000000001e-01 0.0000000000000000e+00 0.0000000000000000e+00  -9.5979389240491306e-02 4.8308709694998742e-04 7.9779363745903758e-03  -9.2156756081318139e-02 8.8467552058635248e-04 1.1915582076367859e-02  -8.8048385619120123e-02 1.2446372354598585e-03 1.3941327618337725e-02  -8.3505775984016387e-02 1.5771436348496020e-03 1.4972873826830003e-02  -7.8522994238826777e-02 1.8833315188896017e-03 1.5461822585574374e-02  -7.3151457558370381e-02 2.1588365367046182e-03 1.5654515666469984e-02  -6.7463410640985336e-02 2.3980805781894962e-03 1.5694997592423605e-02  -6.1536599685328035e-02 2.5964767458435600e-03 1.5670314748495024e-02  -5.5448550535170213e-02 2.7509625367326748e-03 1.5631950178427601e-02  -4.9276287805917272e-02 2.8580645329363379e-03 1.5605523166136359e-02  -4.3093593447913435e-02 2.9151775114335224e-03 1.5596602616179291e-02  -3.6972172614067808e-02 2.9187913840224566e-03 1.5590039605826111e-02  -3.0983218703969070e-02 2.8629095844490120e-03 1.5549742276084719e-02  -2.5198303447936485e-02 2.7384569208446633e-03 1.5413910035977658e-02  -1.9689004261555870e-02 2.5336090539093189e-03 1.5085375209951870e-02  -1.4525739383826735e-02 2.2350129756050253e-03 1.4414453497101102e-02  -9.7790532224100966e-03 1.8301623846366329e-03 1.3167311141262177e-02  -5.5376186465263440e-03 1.3117499079485422e-03 1.0959579840893066e-02  -2.0065828650118775e-03 6.8649420122240945e-04 7.0872493607692317e-03  0.0000000000000000e+00 0.0000000000000000e+00 0.0000000000000000e+00  -1.0000000000000001e-01 0.0000000000000000e+00 0.0000000000000000e+00  -9.5982199314610328e-02 -5.6059423789860307e-05 7.9718758574060956e-03  -9.2165936350822167e-02 -1.4804255245108266e-04 1.1902486813911546e-02  -8.8067970098854614e-02 -2.1850284379188229e-04 1.3926148728207374e-02  -8.3541085114893041e-02 -2.5080573210772280e-04 1.4961429974128264e-02  -7.8579131867964863e-02 -2.4536121609481569e-04 1.5458812144074741e-02  -7.3231648312349212e-02 -2.0934989376080845e-04 1.5662782098656493e-02  -6.7567669887378959e-02 -1.5140079233857625e-04 1.5715490222893414e-02  -6.1660913512553844e-02 -7.8818259141860900e-05 1.5702502079223316e-02  -5.5584639532247272e-02 3.4853026667231311e-06 1.5674564156303458e-02  -4.9411337502743249e-02 9.2397020717036474e-05 1.5657843317372477e-02  -4.3217050105264068e-02 1.8198656429812551e-04 1.5656793355131881e-02  -3.7076177881596006e-02 2.6752655763901230e-04 1.5657305046992167e-02  -3.1063729802711913e-02 3.4307686483223381e-04 1.5623331560812477e-02  -2.5255148877956275e-02 4.0099299089402582e-04 1.5492388765703226e-02  -1.9725350084380467e-02 4.3198974254275382e-04 1.5166042342283069e-02  -1.4547012818066404e-02 4.2608028306447996e-04 1.4492944756845127e-02  -9.7912706704662567e-03 3.7463558797002386e-04 1.3237488925494428e-02  -5.5451314981358373e-03 2.7424388559192957e-04 1.1013922238465612e-02  -2.0100755032302123e-03 1.3447146026060095e-04 7.1179305898506412e-03  0.0000000000000000e+00 0.0000000000000000e+00 0.0000000000000000e+00  -1.0000000000000001e-01 0.0000000000000000e+00 0.0000000000000000e+00  -9.5986564749789366e-02 -5.9694856977617625e-04 7.9440871030810878e-03  -9.2171596989212595e-02 -1.1826580580209108e-03 1.1854357935957897e-02  -8.8076842756947424e-02 -1.6797315640442064e-03 1.3866955557725954e-02  -8.3558953838433633e-02 -2.0713338594897761e-03 1.4899161775653961e-02  -7.8613146437877979e-02 -2.3617272521281180e-03 1.5399234435064123e-02  -7.3288157531518183e-02 -2.5626188698229142e-03 1.5609363049214960e-02  -6.7650592435890819e-02 -2.6867621294064843e-03 1.5669735634210213e-02  -6.1770584256933860e-02 -2.7446725271304115e-03 1.5664536451674718e-02  -5.5717007611031003e-02 -2.7430711854540464e-03 1.5643918188122108e-02  -4.9557351095604267e-02 -2.6847155156975379e-03 1.5634457410747940e-02  -4.3360461929429710e-02 -2.5701486752689961e-03 1.5642915111277651e-02  -3.7206327489288940e-02 -2.4074910333293014e-03 1.5653163339981992e-02  -3.1172686818755426e-02 -2.2018131930799808e-03 1.5629207881338071e-02  -2.5339062879876875e-02 -1.9596246575375896e-03 1.5507721725039256e-02  -1.9784347895401684e-02 -1.6883465062377272e-03 1.5188946114170918e-02  -1.4584451609556509e-02 -1.3956236087183879e-03 1.4519957306935909e-02  -9.8123996495625091e-03 -1.0875901840277969e-03 1.3263717140800147e-02  -5.5552326328869601e-03 -7.6541755563375798e-04 1.1033877391739371e-02  -2.0127968528786265e-03 -4.1807192962243687e-04 7.1274813104637005e-03  0.0000000000000000e+00 0.0000000000000000e+00 0.0000000000000000e+00  -1.0000000000000001e-01 0.0000000000000000e+00 0.0000000000000000e+00  -9.5991223497408323e-02 -1.1499317601599383e-03 7.8942033920693308e-03  -9.2171515233460191e-02 -2.2334055076487216e-03 1.1770405785010471e-02  -8.8072589823183597e-02 -3.1538478482381802e-03 1.3763308234494866e-02  -8.3557604181639836e-02 -3.8980287630568660e-03 1.4786561019791856e-02  -7.8624504865304382e-02 -4.4770665209736818e-03 1.5284756631733109e-02  -7.3321968684921787e-02 -4.9092554034884254e-03 1.5497016475093814e-02  -6.7714610476599060e-02 -5.2128303228207908e-03 1.5561208668004655e-02  -6.1869218606535097e-02 -5.4024055799162746e-03 1.5559986086612349e-02  -5.5850270297425494e-02 -5.4871126707362640e-03 1.5542833024636715e-02  -4.9719816616731444e-02 -5.4697985334163837e-03 1.5536692634644626e-02  -4.3539835592796672e-02 -5.3474465977060891e-03 1.5550042283807930e-02  -3.7377043084542004e-02 -5.1142562660084845e-03 1.5572015993440052e-02  -3.1322691818884217e-02 -4.7824592975875702e-03 1.5561732509199131e-02  -2.5459716804488004e-02 -4.3561677407975294e-03 1.5455207535381602e-02  -1.9872389402708829e-02 -3.8415694716153414e-03 1.5150893711977453e-02  -1.4641473492662519e-02 -3.2449176101071609e-03 1.4493933657970680e-02  -9.8436805823219151e-03 -2.5710560006388596e-03 1.3245729530015415e-02  -5.5680265985096058e-03 -1.8201727874756833e-03 1.1019740173938173e-02  -2.0146005088050398e-03 -9.8022418257707436e-04 7.1159951903099527e-03  0.0000000000000000e+00 0.0000000000000000e+00 0.0000000000000000e+00  -1.0000000000000001e-01 0.0000000000000000e+00 0.0000000000000000e+00  -9.5993642152783526e-02 -1.7271713864975516e-03 7.8219756699769577e-03  -9.2160896662927358e-02 -3.3154350449940430e-03 1.1650186544248643e-02  -8.8049271564232132e-02 -4.6552391729735706e-03 1.3615250783940420e-02  -8.3531056791851827e-02 -5.7430478004860180e-03 1.4624561455999165e-02  -7.8607995536583639e-02 -6.6006864932924457e-03 1.5117327299367937e-02  -7.3329100577178299e-02 -7.2553895703145709e-03