<?xml version="1.0"?>
<VTKFile type="UnstructuredGrid"  version="0.1"  >
<UnstructuredGrid>
<Piece  NumberOfPoints="2018" NumberOfCells="9424">
<Points>
<DataArray  type="Float64"  NumberOfComponents="3"  format="ascii">0.375 0.125 0  0.4166666666666667 0.125 0  0.4166666666666667 0.1875 0  0.4166666666666667 0.1875 0.0625  0.375 0.1875 0  0.375 0.125 0.0625  0.375 0.1875 0.0625  0.4583333333333333 0.125 0  0.4583333333333333 0.1875 0  0.4583333333333333 0.1875 0.0625  0.5 0.125 0  0.5 0.1875 0  0.5 0.1875 0.0625  0.5416666666666666 0.125 0  0.5416666666666666 0.1875 0  0.5416666666666666 0.1875 0.0625  0.5833333333333334 0.125 0  0.5833333333333334 0.1875 0  0.5833333333333334 0.1875 0.0625  0.625 0.1875 0  0.625 0.1875 0.0625  0.4166666666666667 0.25 0  0.4166666666666667 0.25 0.0625  0.375 0.25 0  0.375 0.25 0.0625  0.4583333333333333 0.25 0  0.4583333333333333 0.25 0.0625  0.5 0.25 0  0.5 0.25 0.0625  0.5416666666666666 0.25 0  0.5416666666666666 0.25 0.0625  0.5833333333333334 0.25 0  0.5833333333333334 0.25 0.0625  0.625 0.25 0  0.625 0.25 0.0625  0.6666666666666666 0.25 0  0.6666666666666666 0.25 0.0625  0.4166666666666667 0.3125 0  0.4166666666666667 0.3125 0.0625  0.375 0.3125 0  0.375 0.3125 0.0625  0.4583333333333333 0.3125 0  0.4583333333333333 0.3125 0.0625  0.5 0.3125 0  0.5 0.3125 0.0625  0.5416666666666666 0.3125 0  0.5416666666666666 0.3125 0.0625  0.5833333333333334 0.3125 0  0.5833333333333334 0.3125 0.0625  0.625 0.3125 0  0.625 0.3125 0.0625  0.6666666666666666 0.3125 0  0.6666666666666666 0.3125 0.0625  0.7083333333333334 0.25 0  0.7083333333333334 0.3125 0  0.7083333333333334 0.3125 0.0625  0.7083333333333334 0.25 0.0625  0.75 0.25 0  0.75 0.3125 0  0.75 0.3125 0.0625  0.75 0.25 0.0625  0.7916666666666666 0.25 0  0.7916666666666666 0.3125 0  0.7916666666666666 0.3125 0.0625  0.8333333333333334 0.3125 0  0.8333333333333334 0.3125 0.0625  0.3333333333333333 0.3125 0  0.375 0.375 0  0.375 0.375 0.0625  0.3333333333333333 0.3125 0.0625  0.3333333333333333 0.375 0  0.3333333333333333 0.375 0.0625  0.4166666666666667 0.375 0  0.4166666666666667 0.375 0.0625  0.4583333333333333 0.375 0  0.4583333333333333 0.375 0.0625  0.5 0.375 0  0.5 0.375 0.0625  0.5416666666666666 0.375 0  0.5416666666666666 0.375 0.0625  0.5833333333333334 0.375 0  0.5833333333333334 0.375 0.0625  0.625 0.375 0  0.625 0.375 0.0625  0.6666666666666666 0.375 0  0.6666666666666666 0.375 0.0625  0.7083333333333334 0.375 0  0.7083333333333334 0.375 0.0625  0.75 0.375 0  0.75 0.375 0.0625  0.7916666666666666 0.375 0  0.7916666666666666 0.375 0.0625  0.8333333333333334 0.375 0  0.8333333333333334 0.375 0.0625  0.875 0.3125 0  0.875 0.375 0  0.875 0.375 0.0625  0.9166666666666666 0.375 0  0.9166666666666666 0.375 0.0625  0.375 0.4375 0  0.375 0.4375 0.0625  0.4166666666666667 0.4375 0  0.4166666666666667 0.4375 0.0625  0.4583333333333333 0.4375 0  0.4583333333333333 0.4375 0.0625  0.5 0.4375 0  0.5 0.4375 0.0625  0.5416666666666666 0.4375 0  0.5416666666666666 0.4375 0.0625  0.5833333333333334 0.4375 0  0.5833333333333334 0.4375 0.0625  0.625 0.4375 0  0.625 0.4375 0.0625  0.6666666666666666 0.4375 0  0.6666666666666666 0.4375 0.0625  0.7083333333333334 0.4375 0  0.7083333333333334 0.4375 0.0625  0.75 0.4375 0  0.75 0.4375 0.0625  0.7916666666666666 0.4375 0  0.7916666666666666 0.4375 0.0625  0.8333333333333334 0.4375 0  0.8333333333333334 0.4375 0.0625  0.875 0.4375 0  0.875 0.4375 0.0625  0.9166666666666666 0.4375 0  0.9166666666666666 0.4375 0.0625  0.9583333333333334 0.375 0  0.9583333333333334 0.4375 0  0.9583333333333334 0.4375 0.0625  0.9583333333333334 0.375 0.0625  1 0.4375 0  1 0.4375 0.0625  0.4166666666666667 0.5 0  0.4166666666666667 0.5 0.0625  0.375 0.5 0  0.375 0.5 0.0625  0.4583333333333333 0.5 0  0.4583333333333333 0.5 0.0625  0.5 0.5 0  0.5 0.5 0.0625  0.5416666666666666 0.5 0  0.5416666666666666 0.5 0.0625  0.5833333333333334 0.5 0  0.5833333333333334 0.5 0.0625  0.625 0.5 0  0.625 0.5 0.0625  0.6666666666666666 0.5 0  0.6666666666666666 0.5 0.0625  0.7083333333333334 0.5 0  0.7083333333333334 0.5 0.0625  0.75 0.5 0  0.75 0.5 0.0625  0.7916666666666666 0.5 0  0.7916666666666666 0.5 0.0625  0.8333333333333334 0.5 0  0.8333333333333334 0.5 0.0625  0.875 0.5 0  0.875 0.5 0.0625  0.9166666666666666 0.5 0  0.9166666666666666 0.5 0.0625  0.9583333333333334 0.5 0  0.9583333333333334 0.5 0.0625  1 0.5 0  1 0.5 0.0625  0.4166666666666667 0.5625 0  0.4166666666666667 0.5625 0.0625  0.375 0.5625 0  0.4583333333333333 0.5625 0  0.4583333333333333 0.5625 0.0625  0.5 0.5625 0  0.5 0.5625 0.0625  0.5416666666666666 0.5625 0  0.5416666666666666 0.5625 0.0625  0.5833333333333334 0.5625 0  0.5833333333333334 0.5625 0.0625  0.625 0.5625 0  0.625 0.5625 0.0625  0.6666666666666666 0.5625 0  0.6666666666666666 0.5625 0.0625  0.7083333333333334 0.5625 0  0.7083333333333334 0.5625 0.0625  0.75 0.5625 0  0.75 0.5625 0.0625  0.7916666666666666 0.5625 0  0.7916666666666666 0.5625 0.0625  0.8333333333333334 0.5625 0  0.8333333333333334 0.5625 0.0625  0.875 0.5625 0  0.875 0.5625 0.0625  0.9166666666666666 0.5625 0  0.9166666666666666 0.5625 0.0625  0.9583333333333334 0.5625 0  0.9583333333333334 0.5625 0.0625  1 0.5625 0  1 0.5625 0.0625  0.4166666666666667 0.625 0  0.4166666666666667 0.625 0.0625  0.375 0.625 0  0.4583333333333333 0.625 0  0.4583333333333333 0.625 0.0625  0.5 0.625 0  0.5 0.625 0.0625  0.5416666666666666 0.625 0  0.5416666666666666 0.625 0.0625  0.5833333333333334 0.625 0  0.5833333333333334 0.625 0.0625  0.625 0.625 0  0.625 0.625 0.0625  0.6666666666666666 0.625 0  0.6666666666666666 0.625 0.0625  0.7083333333333334 0.625 0  0.7083333333333334 0.625 0.0625  0.75 0.625 0  0.75 0.625 0.0625  0.7916666666666666 0.625 0  0.7916666666666666 0.625 0.0625  0.8333333333333334 0.625 0  0.8333333333333334 0.625 0.0625  0.875 0.625 0  0.875 0.625 0.0625  0.9166666666666666 0.625 0  0.9166666666666666 0.625 0.0625  0.9583333333333334 0.625 0  0.9583333333333334 0.625 0.0625  1 0.625 0  1 0.625 0.0625  0.4166666666666667 0.6875 0  0.4166666666666667 0.6875 0.0625  0.4583333333333333 0.6875 0  0.4583333333333333 0.6875 0.0625  0.5 0.6875 0  0.5 0.6875 0.0625  0.5416666666666666 0.6875 0  0.5416666666666666 0.6875 0.0625  0.5833333333333334 0.6875 0  0.5833333333333334 0.6875 0.0625  0.625 0.6875 0  0.625 0.6875 0.0625  0.6666666666666666 0.6875 0  0.6666666666666666 0.6875 0.0625  0.7083333333333334 0.6875 0  0.7083333333333334 0.6875 0.0625  0.75 0.6875 0  0.75 0.6875 0.0625  0.7916666666666666 0.6875 0  0.7916666666666666 0.6875 0.0625  0.8333333333333334 0.6875 0  0.8333333333333334 0.6875 0.0625  0.875 0.6875 0  0.875 0.6875 0.0625  0.9166666666666666 0.6875 0  0.9166666666666666 0.6875 0.0625  0.9583333333333334 0.6875 0  0.9583333333333334 0.6875 0.0625  1 0.6875 0  1 0.6875 0.0625  0.4583333333333333 0.75 0  0.4583333333333333 0.75 0.0625  0.4166666666666667 0.75 0  0.4166666666666667 0.75 0.0625  0.5 0.75 0  0.5 0.75 0.0625  0.5416666666666666 0.75 0  0.5416666666666666 0.75 0.0625  0.5833333333333334 0.75 0  0.5833333333333334 0.75 0.0625  0.625 0.75 0  0.625 0.75 0.0625  0.6666666666666666 0.75 0  0.6666666666666666 0.75 0.0625  0.7083333333333334 0.75 0  0.7083333333333334 0.75 0.0625  0.75 0.75 0  0.75 0.75 0.0625  0.7916666666666666 0.75 0  0.7916666666666666 0.75 0.0625  0.8333333333333334 0.75 0  0.8333333333333334 0.75 0.0625  0.875 0.75 0  0.875 0.75 0.0625  0.9166666666666666 0.75 0  0.9166666666666666 0.75 0.0625  0.9583333333333334 0.75 0  0.9583333333333334 0.75 0.0625  1 0.75 0  1 0.75 0.0625  0.4583333333333333 0.8125 0  0.4583333333333333 0.8125 0.0625  0.5 0.8125 0  0.5 0.8125 0.0625  0.5416666666666666 0.8125 0  0.5416666666666666 0.8125 0.0625  0.5833333333333334 0.8125 0  0.5833333333333334 0.8125 0.0625  0.625 0.8125 0  0.625 0.8125 0.0625  0.6666666666666666 0.8125 0  0.6666666666666666 0.8125 0.0625  0.7083333333333334 0.8125 0  0.7083333333333334 0.8125 0.0625  0.75 0.8125 0  0.75 0.8125 0.0625  0.7916666666666666 0.8125 0  0.7916666666666666 0.8125 0.0625  0.8333333333333334 0.8125 0  0.8333333333333334 0.8125 0.0625  0.875 0.8125 0  0.875 0.8125 0.0625  0.9166666666666666 0.8125 0  0.9166666666666666 0.8125 0.0625  0.9583333333333334 0.8125 0  0.9583333333333334 0.8125 0.0625  1 0.8125 0  1 0.8125 0.0625  0.5 0.875 0  0.5 0.875 0.0625  0.4583333333333333 0.875 0  0.5416666666666666 0.875 0  0.5416666666666666 0.875 0.0625  0.5833333333333334 0.875 0  0.5833333333333334 0.875 0.0625  0.625 0.875 0  0.625 0.875 0.0625  0.6666666666666666 0.875 0  0.6666666666666666 0.875 0.0625  0.7083333333333334 0.875 0  0.7083333333333334 0.875 0.0625  0.75 0.875 0  0.75 0.875 0.0625  0.7916666666666666 0.875 0  0.7916666666666666 0.875 0.0625  0.8333333333333334 0.875 0  0.8333333333333334 0.875 0.0625  0.875 0.875 0  0.875 0.875 0.0625  0.9166666666666666 0.875 0  0.9166666666666666 0.875 0.0625  0.9583333333333334 0.875 0  0.9583333333333334 0.875 0.0625  1 0.875 0  1 0.875 0.0625  0.5 0.9375 0  0.5 0.9375 0.0625  0.5416666666666666 0.9375 0  0.5416666666666666 0.9375 0.0625  0.5833333333333334 0.9375 0  0.5833333333333334 0.9375 0.0625  0.625 0.9375 0  0.625 0.9375 0.0625  0.6666666666666666 0.9375 0  0.6666666666666666 0.9375 0.0625  0.7083333333333334 0.9375 0  0.7083333333333334 0.9375 0.0625  0.75 0.9375 0  0.75 0.9375 0.0625  0.7916666666666666 0.9375 0  0.7916666666666666 0.9375 0.0625  0.8333333333333334 0.9375 0  0.8333333333333334 0.9375 0.0625  0.875 0.9375 0  0.875 0.9375 0.0625  0.9166666666666666 0.9375 0  0.9166666666666666 0.9375 0.0625  0.9583333333333334 0.9375 0  0.9583333333333334 0.9375 0.0625  1 0.9375 0  1 0.9375 0.0625  0.5416666666666666 1 0  0.5416666666666666 1 0.0625  0.5 1 0  0.5833333333333334 1 0  0.5833333333333334 1 0.0625  0.625 1 0  0.625 1 0.0625  0.6666666666666666 1 0  0.6666666666666666 1 0.0625  0.7083333333333334 1 0  0.7083333333333334 1 0.0625  0.75 1 0  0.75 1 0.0625  0.7916666666666666 1 0  0.7916666666666666 1 0.0625  0.8333333333333334 1 0  0.8333333333333334 1 0.0
[...]
<PointData  Vectors="f_13"> 
<DataArray  type="Float64"  Name="f_13"  NumberOfComponents="3" format="ascii">1.0000000000000002e-01 0.0000000000000000e+00 0.0000000000000000e+00  1.0000000000000002e-01 0.0000000000000000e+00 0.0000000000000000e+00  1.0000000000000002e-01 0.0000000000000000e+00 0.0000000000000000e+00  9.9999999999999117e-02 3.0432066523326781e-16 -7.4377452420733238e-17  1.0000000000000002e-01 0.0000000000000000e+00 0.0000000000000000e+00  9.9999999999999728e-02 -1.6594090344389045e-17 -6.7816514033737290e-17  9.9999999999999256e-02 9.8595663214935462e-17 -1.9961028078208040e-16  1.0000000000000002e-01 0.0000000000000000e+00 0.0000000000000000e+00  1.0000000000000002e-01 0.0000000000000000e+00 0.0000000000000000e+00  9.9999999999999187e-02 4.4248751661902057e-16 7.9535028783501960e-18  1.0000000000000002e-01 0.0000000000000000e+00 0.0000000000000000e+00  1.0000000000000002e-01 0.0000000000000000e+00 0.0000000000000000e+00  9.9999999999999048e-02 4.2792507331436200e-16 1.5774809504644428e-16  1.0000000000000002e-01 0.0000000000000000e+00 0.0000000000000000e+00  1.0000000000000002e-01 0.0000000000000000e+00 0.0000000000000000e+00  9.9999999999998992e-02 3.6448994703165939e-16 1.8141990464757998e-16  1.0000000000000002e-01 0.0000000000000000e+00 0.0000000000000000e+00  1.0000000000000002e-01 0.0000000000000000e+00 0.0000000000000000e+00  9.9999999999999006e-02 2.2180406807416865e-16 3.2181449735578708e-16  1.0000000000000002e-01 0.0000000000000000e+00 0.0000000000000000e+00  9.9999999999999062e-02 2.0051391338067760e-16 2.8347457451010502e-16  1.0000000000000002e-01 0.0000000000000000e+00 0.0000000000000000e+00  9.9999999999998521e-02 4.1502413699006900e-16 -1.4442229466416993e-16  1.0000000000000002e-01 0.0000000000000000e+00 0.0000000000000000e+00  9.9999999999998562e-02 2.8218259065460823e-16 -3.3302851365297611e-16  1.0000000000000002e-01 0.0000000000000000e+00 0.0000000000000000e+00  9.9999999999998507e-02 2.6953725250751749e-16 -1.3211832922265939e-16  1.0000000000000002e-01 0.0000000000000000e+00 0.0000000000000000e+00  9.9999999999998770e-02 3.3695613116557188e-16 1.2159910470273814e-16  1.0000000000000002e-01 0.0000000000000000e+00 0.0000000000000000e+00  9.9999999999998826e-02 4.0014134504356443e-16 2.7246138840036313e-16  1.0000000000000002e-01 0.0000000000000000e+00 0.0000000000000000e+00  9.9999999999998798e-02 1.5041009894744981e-16 3.8064102336531989e-16  1.0000000000000002e-01 0.0000000000000000e+00 0.0000000000000000e+00  9.9999999999998646e-02 3.8913316880467183e-17 3.0090141599014252e-16  1.0000000000000002e-01 0.0000000000000000e+00 0.0000000000000000e+00  9.9999999999998743e-02 7.1942627226199777e-17 5.0220355716744632e-16  1.0000000000000002e-01 0.0000000000000000e+00 0.0000000000000000e+00  9.9999999999998743e-02 6.5999132096415927e-16 -2.2203558170331269e-17  1.0000000000000002e-01 0.0000000000000000e+00 0.0000000000000000e+00  9.9999999999998687e-02 4.6545721087676179e-16 -2.8908705873230069e-16  1.0000000000000002e-01 0.0000000000000000e+00 0.0000000000000000e+00  9.9999999999998659e-02 4.6071725494360702e-16 -1.1033117216140777e-17  1.0000000000000002e-01 0.0000000000000000e+00 0.0000000000000000e+00  9.9999999999998548e-02 2.9409443932318298e-16 1.2842321169679121e-16  1.0000000000000002e-01 0.0000000000000000e+00 0.0000000000000000e+00  9.9999999999998437e-02 2.2288188030027758e-16 9.4022210877063942e-17  1.0000000000000002e-01 0.0000000000000000e+00 0.0000000000000000e+00  9.9999999999998535e-02 6.7743888582153074e-17 3.5375299462252378e-16  1.0000000000000002e-01 0.0000000000000000e+00 0.0000000000000000e+00  9.9999999999998423e-02 -1.3784356070488781e-16 2.5767030282149232e-16  1.0000000000000002e-01 0.0000000000000000e+00 0.0000000000000000e+00  9.9999999999998548e-02 -2.7162354601278471e-16 4.3430046961361572e-16  1.0000000000000002e-01 0.0000000000000000e+00 0.0000000000000000e+00  1.0000000000000002e-01 0.0000000000000000e+00 0.0000000000000000e+00  9.9999999999998521e-02 -3.0172862846888673e-17 5.1388949550453004e-16  9.9999999999998659e-02 3.9642228040844005e-17 4.1016909806717914e-16  1.0000000000000002e-01 0.0000000000000000e+00 0.0000000000000000e+00  1.0000000000000002e-01 0.0000000000000000e+00 0.0000000000000000e+00  9.9999999999998576e-02 2.9186192327718426e-16 5.0425939754909115e-16  9.9999999999998770e-02 4.5362228639762284e-16 3.8169259002984204e-16  1.0000000000000002e-01 0.0000000000000000e+00 0.0000000000000000e+00  1.0000000000000002e-01 0.0000000000000000e+00 0.0000000000000000e+00  9.9999999999998646e-02 3.2987310161672123e-16 4.7420341453053839e-16  1.0000000000000002e-01 0.0000000000000000e+00 0.0000000000000000e+00  9.9999999999998923e-02 3.9612835743270379e-16 5.6424171037628592e-16  1.0000000000000002e-01 0.0000000000000000e+00 0.0000000000000000e+00  1.0000000000000002e-01 0.0000000000000000e+00 0.0000000000000000e+00  9.9999999999998979e-02 7.0413987398482354e-16 -9.0565544261516577e-17  9.9999999999998576e-02 1.4297500504975094e-16 -4.9361113544410201e-16  1.0000000000000002e-01 0.0000000000000000e+00 0.0000000000000000e+00  9.9999999999998798e-02 4.0463347289924990e-16 -3.5684353075905395e-16  1.0000000000000002e-01 0.0000000000000000e+00 0.0000000000000000e+00  9.9999999999998881e-02 7.0070879568170098e-16 8.2829216147328336e-17  1.0000000000000002e-01 0.0000000000000000e+00 0.0000000000000000e+00  9.9999999999998770e-02 4.6179307019048782e-16 6.4812654638923193e-17  1.0000000000000002e-01 0.0000000000000000e+00 0.0000000000000000e+00  9.9999999999998659e-02 3.3698299458703216e-16 1.1697311836607539e-16  1.0000000000000002e-01 0.0000000000000000e+00 0.0000000000000000e+00  9.9999999999998590e-02 2.4383501245493124e-16 1.7388117657550224e-16  1.0000000000000002e-01 0.0000000000000000e+00 0.0000000000000000e+00  9.9999999999998646e-02 7.3149478156879125e-17 3.4163598352322108e-16  1.0000000000000002e-01 0.0000000000000000e+00 0.0000000000000000e+00  9.9999999999998576e-02 -1.7413194402027438e-17 3.1791652668295135e-16  1.0000000000000002e-01 0.0000000000000000e+00 0.0000000000000000e+00  9.9999999999998437e-02 -4.6570932898209792e-16 2.7803232071583209e-16  1.0000000000000002e-01 0.0000000000000000e+00 0.0000000000000000e+00  9.9999999999998562e-02 -2.3942872293774465e-16 3.8570154950472113e-16  1.0000000000000002e-01 0.0000000000000000e+00 0.0000000000000000e+00  9.9999999999998784e-02 1.3179505046430348e-16 4.2007378982618929e-16  1.0000000000000002e-01 0.0000000000000000e+00 0.0000000000000000e+00  9.9999999999998881e-02 1.1638413929318494e-16 4.1890034184015187e-16  1.0000000000000002e-01 0.0000000000000000e+00 0.0000000000000000e+00  9.9999999999999145e-02 2.1273016896712536e-16 5.6097890112869469e-16  1.0000000000000002e-01 0.0000000000000000e+00 0.0000000000000000e+00  1.0000000000000002e-01 0.0000000000000000e+00 0.0000000000000000e+00  9.9999999999999312e-02 2.3158963512524986e-16 6.2171039978954160e-16  1.0000000000000002e-01 0.0000000000000000e+00 0.0000000000000000e+00  9.9999999999999395e-02 2.3049000817140353e-16 5.6371272655145920e-16  1.0000000000000002e-01 0.0000000000000000e+00 0.0000000000000000e+00  9.9999999999999908e-02 5.7391662850377638e-16 -2.0483746121033699e-16  1.0000000000000002e-01 0.0000000000000000e+00 0.0000000000000000e+00  1.0000000000000023e-01 9.1817878877336930e-16 4.6513042980107299e-16  1.0000000000000002e-01 0.0000000000000000e+00 0.0000000000000000e+00  9.9999999999999797e-02 4.7196863286402381e-16 1.7090244561127161e-16  1.0000000000000002e-01 0.0000000000000000e+00 0.0000000000000000e+00  9.9999999999999506e-02 3.6650814285468636e-16 1.9920736851201496e-16  1.0000000000000002e-01 0.0000000000000000e+00 0.0000000000000000e+00  9.9999999999999284e-02 2.0516842117535485e-16 1.8009103555339253e-16  1.0000000000000002e-01 0.0000000000000000e+00 0.0000000000000000e+00  9.9999999999999159e-02 3.9885209630996413e-17 2.5830350020754199e-16  1.0000000000000002e-01 0.0000000000000000e+00 0.0000000000000000e+00  9.9999999999999076e-02 -1.5525406942823531e-17 3.6018293363169594e-16  1.0000000000000002e-01 0.0000000000000000e+00 0.0000000000000000e+00  9.9999999999998965e-02 -2.3080079787523044e-16 4.8248366409136283e-16  1.0000000000000002e-01 0.0000000000000000e+00 0.0000000000000000e+00  9.9999999999998632e-02 -2.7621588048261572e-16 3.4727036075407703e-16  1.0000000000000002e-01 0.0000000000000000e+00 0.0000000000000000e+00  9.9999999999998590e-02 -1.0429253817096309e-16 3.8808105732690429e-16  1.0000000000000002e-01 0.0000000000000000e+00 0.0000000000000000e+00  9.9999999999998757e-02 8.4664198821580114e-18 4.3162607863982748e-16  1.0000000000000002e-01 0.0000000000000000e+00 0.0000000000000000e+00  9.9999999999998923e-02 3.9553896789116341e-17 5.3998824852442468e-16  1.0000000000000002e-01 0.0000000000000000e+00 0.0000000000000000e+00  9.9999999999999103e-02 5.8012494385721507e-17 5.4049666748952976e-16  1.0000000000000002e-01 0.0000000000000000e+00 0.0000000000000000e+00  9.9999999999999326e-02 1.3714868738745549e-16 5.3008135977106170e-16  1.0000000000000002e-01 0.0000000000000000e+00 0.0000000000000000e+00  1.0000000000000002e-01 0.0000000000000000e+00 0.0000000000000000e+00  9.9999999999999575e-02 6.5416671349894769e-17 3.6732967481093840e-16  9.9999999999999631e-02 1.0669972484600577e-16 4.3293463926331906e-16  1.0000000000000001e-01 0.0000000000000000e+00 0.0000000000000000e+00  1.0000000000000002e-01 0.0000000000000000e+00 0.0000000000000000e+00  1.0000000000000002e-01 0.0000000000000000e+00 0.0000000000000000e+00  9.9999999999999367e-02 5.3935038742668091e-16 7.9869491845377986e-17  1.0000000000000002e-01 0.0000000000000000e+00 0.0000000000000000e+00  9.9999999999999201e-02 4.3455396792465966e-16 -2.5911950861905027e-16  1.0000000000000002e-01 0.0000000000000000e+00 0.0000000000000000e+00  9.9999999999999367e-02 3.7759121430308455e-16 4.1418591290018277e-17  1.0000000000000002e-01 0.0000000000000000e+00 0.0000000000000000e+00  9.9999999999999353e-02 3.2457627597879393e-16 1.3805652942615125e-16  1.0000000000000002e-01 0.0000000000000000e+00 0.0000000000000000e+00  9.9999999999999298e-02 2.2495905549429007e-16 1.8787142429664772e-16  1.0000000000000002e-01 0.0000000000000000e+00 0.0000000000000000e+00  9.9999999999999270e-02 7.8688602102765709e-17 2.3707207748155889e-16  1.0000000000000002e-01 0.0000000000000000e+00 0.0000000000000000e+00  9.9999999999999270e-02 -2.0478259486824242e-17 3.3948290677633541e-16  1.0000000000000002e-01 0.0000000000000000e+00 0.0000000000000000e+00  9.9999999999999284e-02 -1.4373531836988399e-16 4.7289937142599661e-16  1.0000000000000002e-01 0.0000000000000000e+00 0.0000000000000000e+00  9.9999999999999159e-02 -5.8618280308686085e-17 3.3771536923769372e-16  1.0000000000000002e-01 0.0000000000000000e+00 0.0000000000000000e+00  9.9999999999999076e-02 -8.7986545313794490e-17 3.9532698686304009e-16  1.0000000000000002e-01 0.0000000000000000e+00 0.0000000000000000e+00  9.9999999999999117e-02 -1.0558344738508784e-16 4.9829121437469987e-16  1.0000000000000002e-01 0.0000000000000000e+00 0.0000000000000000e+00  9.9999999999999187e-02 -4.6779759848148053e-17 5.1219892626783764e-16  1.0000000000000002e-01 0.0000000000000000e+00 0.0000000000000000e+00  9.9999999999999242e-02 4.4056882537004290e-17 6.1972767656451356e-16  1.0000000000000002e-01 0.0000000000000000e+00 0.0000000000000000e+00  9.9999999999999339e-02 4.0456086396623813e-18 5.2244171451358990e-16  1.0000000000000002e-01 0.0000000000000000e+00 0.0000000000000000e+00  9.9999999999999603e-02 7.9139662860886557e-18 3.8911841008871687e-16  1.0000000000000001e-01 0.0000000000000000e+00 0.0000000000000000e+00  1.0000000000000002e-01 0.0000000000000000e+00 0.0000000000000000e+00  1.0000000000000002e-01 0.0000000000000000e+00 0.0000000000000000e+00  9.9999999999998854e-02 3.8536278649243096e-16 1.5762710063431949e-16  1.0000000000000002e-01 0.0000000000000000e+00 0.0000000000000000e+00  1.0000000000000002e-01 0.0000000000000000e+00 0.0000000000000000e+00  9.9999999999998701e-02 9.2408761423563767e-17 -2.3048282344193248e-17  1.0000000000000002e-01 0.0000000000000000e+00 0.0000000000000000e+00  9.9999999999998923e-02 3.3520401649447437e-16 1.2088195028726209e-16  1.0000000000000002e-01 0.0000000000000000e+00 0.0000000000000000e+00  9.9999999999998881e-02 1.5107474187148443e-16 1.7661401096473601e-16  1.0000000000000002e-01 0.0000000000000000e+00 0.0000000000000000e+00  9.9999999999998965e-02 6.6900235845526134e-17 2.4645220575315330e-16  1.0000000000000002e-01 0.0000000000000000e+00 0.0000000000000000e+00  9.9999999999998992e-02 -6.0917474978969767e-17 2.8620765745718590e-16  1.0000000000000002e-01 0.0000000000000000e+00 0.0000000000000000e+00  9.9999999999998951e-02 -2.3747622550688071e-16 2.8576887648431724e-16  1.0000000000000002e-01 0.0000000000000000e+00 0.0000000000000000e+00  9.9999999999999048e-02 -9.8886556478238507e-17 3.2266832244229017e-16  1.0000000000000002e-01 0.0000000000000000e+00 0.0000000000000000e+00  9.9999999999999228e-02 -2.9053184349433202e-17 4.3717439390537815e-16  1.0000000000000002e-01 0.0000000000000000e+00 0.0000000000000000e+00  9.9999999999999256e-02 -2.7213365432209285e-16 4.3903167449792755e-16  1.0000000000000002e-01 0.0000000000000000e+00 0.0000000000000000e+00  9.9999999999999367e-02 -8.4531958718476176e-17 5.7084031901106303e-16  1.0000000000000002e-01 0.0000000000000000e+00 0.0000000000000000e+00  9.9999999999999423e-02 -1.9611235388602646e-17 6.2826784724155126e-16  1.0000000000000002e-01 0.0000000000000000e+00 0.0000000000000000e+00  9.9999999999999437e-02 -1.3762567178878488e-17 5.6856565943933553e-16  1.0000000000000002e-01 0.0000000000000000e+00 0.0000000000000000e+00  9.9999999999999631e-02 -3.8484056083291974e-17 4.1473490545930612e-16  1.0000000000000001e-01 0.0000000000000000e+00 0.0000000000000000e+00  1.0000000000000002e-01 0.0000000000000000e+00 0.0000000000000000e+00  1.0000000000000002e-01 0.0000000000000000e+00 0.0000000000000000e+00  9.9999999999998979e-02 6.4059906384177368e-17 -7.0503385375370516e-18  1.0000000000000002e-01 0.0000000000000000e+00 0.0000000000000000e+00  1.0000000000000002e-01 0.0000000000000000e+00 0.0000000000000000e+00  9.9999999999998951e-02 -8.7619075562292042e-17 3.2638406377100353e-17  1.0000000000000002e-01 0.0000000000000000e+00 0.0000000000000000e+00  9.9999999999998868e-02 1.8756320288118047e-16 9.5359568829283358e-17  1.0000000000000002e-01 0.0000000000000000e+00 0.0000000000000000e+00  9.9999999999998729e-02 1.6206988960121785e-16 1.2729045001121360e-16  1.0000000000000002e-01 0.0000000000000000e+00 0.0000000000000000e+00  9.9999999999998687e-02 1.2005739106301043e-16 2.6323803516459072e-16  1.0000000000000002e-01 0.0000000000000000e+00 0.0000000000000000e+00  9.9999999999998548e-02 -3.1327735146831762e-17 2.7786755883222072e-16  1.0000000000000002e-01 0.0000000000000000e+00 0.0000000000000000e+00  9.9999999999998479e-02 -9.9604404498764500e-17 3.5676701846274229e-16  1.0000000000000002e-01 0.0000000000000000e+00 0.0000000000000000e+00  9.9999999999998548e-02 -1.4583727204049443e-16 3.3007516975280438e-16  1.0000000000000002e-01 0.0000000000000000e+00 0.0000000000000000e+00  9.9999999999998687e-02 -2.2274014800242657e-16 2.8632019495837299e-16  1.0000000000000002e-01 0.0000000000000000e+00 0.0000000000000000e+00  9.9999999999999006e-02 -2.9444722623302498e-16 4.9063470832832967e-16  1.0000000000000002e-01 0.0000000000000000e+00 0.0000000000000000e+00  9.9999999999999215e-02 -2.0154358496526499e-16 6.1258828251346139e-16  1.0000000000000002e-01 0.0000000000000000e+00 0.0000000000000000e+00  9.9999999999999298e-02 -1.8015096863743921e-16 5.9623981052561263e-16  1.0000000000000002e-01 0.0000000000000000e+00 0.0000000000000000e+00  9.9999999999999409e-02 -6.0044205690011980e-17 5.4235328467048928e-16  1.0000000000000002e-01 0.0000000000000000e+00 0.0000000000000000e+00  9.9999999999999645e-02 -6.2456332923000150e-17 4.1413953876033235e-16  1.0000000000000001e-01 0.0000000000000000e+00 0.0000000000000000e+00  1.0000000000000002e-01 0.0000000000000000e+00 0.0000000000000000e+00  1.0000000000000002e-01 0.0000000000000000e+00 0.0000000000000000e+00  9.9999999999998687e-02 3.3195029716417808e-17 -1.4993907600609302e-17  1.0000000000000002e-01 0.0000000000000000e+00 0.0000000000000000e+00  9.9999999999998590e-02 -1.2741836207565716e-16 -6.2707070631071810e-17  1.0000000000000002e-01 0.0000000000000000e+00 0.0000000000000000e+00  9.9999999999998687e-02 2.4448195291138808e-16 8.3065547328331516e-17  1.0000000000000002e-01 0.0000000000000000e+00 0.0000000000000000e+00  9.9999999999998632e-02 1.5220990288947900e-16 1.3777845717392932e-16  1.0000000000000002e-01 0.0000000000000000e+00 0.0000000000000000e+00  9.9999999999998715e-02 8.8563268496819561e-17 2.3683564745768196e-16  1.0000000000000002e-01 0.0000000000000000e+00 0.0000000000000000e+00  9.9999999999998701e-02 -9.3125015932349583e-17 1.9955083498224681e-16  1.0000000000000002e-01 0.0000000000000000e+00 0.0000000000000000e+00  9.9999999999998840e-02 -5.2565235812577162e-17 4.2553291137537411e-16  1.0000000000000002e-01 0.0000000000000000e+00 0.0000000000000000e+00  9.9999999999998729e-02 -2.4895829530700151e-16 4.5940028165309370e-16  1.0000000000000002e-01 0.0000000000000000e+00 0.0000000000000000e+00  9.9999999999998743e-02 -3.3205836686156078e-16 4.6237180496569612e-16  1.0000000000000002e-01 0.0000000000000000e+00 0.0000000000000000e+00  9.9999999999998757e-02 -5.3743628286325338e-16 4.3664276143510205e-16  1.0000000000000002e-01 0.0000000000000000e+00 0.0000000000000000e+00  9.9999999999998937e-02 -4.3338161975317746e-16 5.1202750025284492e-16  1.0000000000000002e-01 0.0000000000000000e+00 0.0000000000000000e+00  9.9999999999999034e-02 -3.9606284770443197e-16 4.9986465808988617e-16  1.0000000000000002e-01 0.0000000000000000e+00 0.0000000000000000e+00  9.9999999999999256e-02 -1.9149440876626242e-16 4.2827421163240608e-16  1.0000000000000002e-01 0.0000000000000000e+00 0.0000000000000000e+00  9.9999999999999645e-02 -7.4917819853592584e-17 4.2878106401239623e-16  1.0000000000000001e-01 0.0000000000000000e+00 0.0000000000000000e+00  1.0000000000000002e-01 0.0000000000000000e+00 0.0000000000000000e+00  1.0000000000000002e-01 0.0000000000000000e+00 0.0000000000000000e+00  9.9999999999998646e-02 -9.4241958958954434e-17 -6.9659330786781189e-17  1.0000000000000002e-01 0.0000000000000000e+00 0.0000000000000000e+00  9.9999999999998798e-02 4.5877172241623566e-18 -4.5006081853776689e-17  1.0000000000000002e-01 0.0000000000000000e+00 0.0000000000000000e+00  9.9999999999998451e-02 -1.4776417042634557e-16 3.4230788169069028e-17  1.0000000000000002e-01 0.0000000000000000e+00 0.0000000000000000e+00  9.9999999999998604e-02 3.8111644643011035e-17 1.2796651713653298e-16  1.0000000000000002e-01 0.0000000000000000e+00 0.0000000000000000e+00  9.9999999999998632e-02 -4.3082138319917951e-17 2.1572465738626584e-16  1.0000000000000002e-01 0.0000000000000000e+00 0.0000000000000000e+00  9.9999999999998646e-02 -9.1626703314714489e-17 2.9798167140280734e-16  1.0000000000000002e-01 0.0000000000000000e+00 0.0000000000000000e+00  9.9999999999998798e-02 -2.7280383194917478e-16 3.7940258637435533e-16  1.0000000000000002e-01 0.0000000000000000e+00 0.0000000000000000e+00  9.9999999999998812e-02 -2.3594512079485660e-16 4.0920334750297249e-16  1.0000000000000002e-01 0.0000000000000000e+00 0.0000000000000000e+00  9.9999999999998659e-02 -4.8908407356183972e-16 2.7884904240396344e-16  1.0000000000000002e-01 0.0000000000000000e+00 0.0000000000000000e+00  9.9999999999998743e-02 -5.6598971645359120e-16 4.1112063854269268e-16  1.0000000000000002e-01 0.0000000000000000e+00 0.0000000000000000e+00  9.9999999999998895e-02 -5.5253111277215911e-16 4.2299090488930658e-16  1.0000000000000002e-01 0.0000000000000000e+00 0.0000000000000000e+00  9.9999999999999145e-02 -4.4206387042850014e-16 4.5869666938519874e-16  1.0000000000000002e-01 0.0000000000000000e+00 0.0000000000000000e+00  9.9999999999999298e-02 -2.7413148297060755e-16 4.5670383708818779e-16  1.000