<?xml version="1.0"?>
<VTKFile type="UnstructuredGrid"  version="0.1"  >
<UnstructuredGrid>
<Piece  NumberOfPoints="2005" NumberOfCells="9191">
<Points>
<DataArray  type="Float64"  NumberOfComponents="3"  format="ascii">0.2916666666666667 0 0  0.3333333333333333 0 0  0.3333333333333333 0.0625 0  0.3333333333333333 0.0625 0.0625  0.3333333333333333 0 0.0625  0.375 0 0  0.375 0.0625 0  0.375 0.0625 0.0625  0.375 0 0.0625  0.4166666666666667 0 0  0.4166666666666667 0.0625 0  0.4166666666666667 0.0625 0.0625  0.4166666666666667 0 0.0625  0.4583333333333333 0 0  0.4583333333333333 0.0625 0  0.4583333333333333 0.0625 0.0625  0.4583333333333333 0 0.0625  0.5 0 0  0.5 0.0625 0  0.5 0.0625 0.0625  0.5 0 0.0625  0.5416666666666666 0 0  0.5416666666666666 0.0625 0  0.5416666666666666 0.0625 0.0625  0.5416666666666666 0 0.0625  0.5833333333333334 0 0  0.5833333333333334 0.0625 0  0.5833333333333334 0.0625 0.0625  0.5833333333333334 0 0.0625  0.625 0 0  0.625 0.0625 0  0.625 0.0625 0.0625  0.625 0 0.0625  0.6666666666666666 0 0  0.6666666666666666 0.0625 0  0.6666666666666666 0.0625 0.0625  0.6666666666666666 0 0.0625  0.7083333333333334 0 0  0.7083333333333334 0.0625 0  0.7083333333333334 0.0625 0.0625  0.7083333333333334 0 0.0625  0.75 0 0  0.75 0.0625 0  0.75 0.0625 0.0625  0.75 0 0.0625  0.7916666666666666 0 0  0.7916666666666666 0.0625 0  0.7916666666666666 0.0625 0.0625  0.7916666666666666 0 0.0625  0.8333333333333334 0 0  0.8333333333333334 0.0625 0  0.8333333333333334 0.0625 0.0625  0.8333333333333334 0 0.0625  0.875 0 0  0.875 0.0625 0  0.875 0.0625 0.0625  0.875 0 0.0625  0.9166666666666666 0 0  0.9166666666666666 0.0625 0  0.9166666666666666 0.0625 0.0625  0.9166666666666666 0 0.0625  0.9583333333333334 0 0  0.9583333333333334 0.0625 0  0.9583333333333334 0.0625 0.0625  0.9583333333333334 0 0.0625  1 0 0  1 0.0625 0  1 0.0625 0.0625  1 0 0.0625  0.375 0.125 0  0.375 0.125 0.0625  0.4166666666666667 0.125 0  0.4166666666666667 0.125 0.0625  0.4583333333333333 0.125 0  0.4583333333333333 0.125 0.0625  0.5 0.125 0  0.5 0.125 0.0625  0.5416666666666666 0.125 0  0.5416666666666666 0.125 0.0625  0.5833333333333334 0.125 0  0.5833333333333334 0.125 0.0625  0.625 0.125 0  0.625 0.125 0.0625  0.6666666666666666 0.125 0  0.6666666666666666 0.125 0.0625  0.7083333333333334 0.125 0  0.7083333333333334 0.125 0.0625  0.75 0.125 0  0.75 0.125 0.0625  0.7916666666666666 0.125 0  0.7916666666666666 0.125 0.0625  0.8333333333333334 0.125 0  0.8333333333333334 0.125 0.0625  0.875 0.125 0  0.875 0.125 0.0625  0.9166666666666666 0.125 0  0.9166666666666666 0.125 0.0625  0.9583333333333334 0.125 0  0.9583333333333334 0.125 0.0625  1 0.125 0  1 0.125 0.0625  0.4166666666666667 0.1875 0.0625  0.4583333333333333 0.1875 0.0625  0.5 0.1875 0.0625  0.5416666666666666 0.1875 0.0625  0.5833333333333334 0.1875 0.0625  0.625 0.1875 0  0.625 0.1875 0.0625  0.6666666666666666 0.1875 0  0.6666666666666666 0.1875 0.0625  0.7083333333333334 0.1875 0  0.7083333333333334 0.1875 0.0625  0.75 0.1875 0  0.75 0.1875 0.0625  0.7916666666666666 0.1875 0  0.7916666666666666 0.1875 0.0625  0.8333333333333334 0.1875 0  0.8333333333333334 0.1875 0.0625  0.875 0.1875 0  0.875 0.1875 0.0625  0.9166666666666666 0.1875 0  0.9166666666666666 0.1875 0.0625  0.9583333333333334 0.1875 0  0.9583333333333334 0.1875 0.0625  1 0.1875 0  1 0.1875 0.0625  0.6666666666666666 0.25 0  0.6666666666666666 0.25 0.0625  0.7083333333333334 0.25 0  0.7083333333333334 0.25 0.0625  0.75 0.25 0  0.75 0.25 0.0625  0.7916666666666666 0.25 0  0.7916666666666666 0.25 0.0625  0.8333333333333334 0.25 0  0.8333333333333334 0.25 0.0625  0.875 0.25 0  0.875 0.25 0.0625  0.9166666666666666 0.25 0  0.9166666666666666 0.25 0.0625  0.9583333333333334 0.25 0  0.9583333333333334 0.25 0.0625  1 0.25 0  1 0.25 0.0625  0.7916666666666666 0.3125 0.0625  0.8333333333333334 0.3125 0  0.8333333333333334 0.3125 0.0625  0.875 0.3125 0  0.875 0.3125 0.0625  0.9166666666666666 0.3125 0  0.9166666666666666 0.3125 0.0625  0.9583333333333334 0.3125 0  0.9583333333333334 0.3125 0.0625  1 0.3125 0  1 0.3125 0.0625  0.875 0.375 0.0625  0.9166666666666666 0.375 0  0.9166666666666666 0.375 0.0625  0.9583333333333334 0.375 0  0.9583333333333334 0.375 0.0625  1 0.375 0  1 0.375 0.0625  1 0.4375 0  1 0.4375 0.0625  0.375 0.0625 0.125  0.375 0 0.125  0.3333333333333333 0 0.125  0.3333333333333333 0.0625 0.125  0.4166666666666667 0.0625 0.125  0.4166666666666667 0 0.125  0.4583333333333333 0.0625 0.125  0.4583333333333333 0 0.125  0.5 0.0625 0.125  0.5 0 0.125  0.5416666666666666 0.0625 0.125  0.5416666666666666 0 0.125  0.5833333333333334 0.0625 0.125  0.5833333333333334 0 0.125  0.625 0.0625 0.125  0.625 0 0.125  0.6666666666666666 0.0625 0.125  0.6666666666666666 0 0.125  0.7083333333333334 0.0625 0.125  0.7083333333333334 0 0.125  0.75 0.0625 0.125  0.75 0 0.125  0.7916666666666666 0.0625 0.125  0.7916666666666666 0 0.125  0.8333333333333334 0.0625 0.125  0.8333333333333334 0 0.125  0.875 0.0625 0.125  0.875 0 0.125  0.9166666666666666 0.0625 0.125  0.9166666666666666 0 0.125  0.9583333333333334 0.0625 0.125  0.9583333333333334 0 0.125  1 0.0625 0.125  1 0 0.125  0.375 0.125 0.125  0.4166666666666667 0.125 0.125  0.4583333333333333 0.125 0.125  0.5 0.125 0.125  0.5416666666666666 0.125 0.125  0.5833333333333334 0.125 0.125  0.625 0.125 0.125  0.6666666666666666 0.125 0.125  0.7083333333333334 0.125 0.125  0.75 0.125 0.125  0.7916666666666666 0.125 0.125  0.8333333333333334 0.125 0.125  0.875 0.125 0.125  0.9166666666666666 0.125 0.125  0.9583333333333334 0.125 0.125  1 0.125 0.125  0.4166666666666667 0.1875 0.125  0.375 0.1875 0.125  0.4583333333333333 0.1875 0.125  0.5 0.1875 0.125  0.5416666666666666 0.1875 0.125  0.5833333333333334 0.1875 0.125  0.625 0.1875 0.125  0.6666666666666666 0.1875 0.125  0.7083333333333334 0.1875 0.125  0.75 0.1875 0.125  0.7916666666666666 0.1875 0.125  0.8333333333333334 0.1875 0.125  0.875 0.1875 0.125  0.9166666666666666 0.1875 0.125  0.9583333333333334 0.1875 0.125  1 0.1875 0.125  0.5416666666666666 0.25 0.125  0.5833333333333334 0.25 0.125  0.6666666666666666 0.25 0.125  0.7083333333333334 0.25 0.125  0.75 0.25 0.125  0.7916666666666666 0.25 0.125  0.8333333333333334 0.25 0.125  0.875 0.25 0.125  0.9166666666666666 0.25 0.125  0.9583333333333334 0.25 0.125  1 0.25 0.125  0.7916666666666666 0.3125 0.125  0.8333333333333334 0.3125 0.125  0.875 0.3125 0.125  0.9166666666666666 0.3125 0.125  0.9583333333333334 0.3125 0.125  1 0.3125 0.125  0.875 0.375 0.125  0.9166666666666666 0.375 0.125  0.9583333333333334 0.375 0.125  1 0.375 0.125  1 0.4375 0.125  0.2916666666666667 0 0.125  0.3333333333333333 0.0625 0.1875  0.3333333333333333 0 0.1875  0.2916666666666667 0 0.1875  0.2916666666666667 0.0625 0.125  0.2916666666666667 0.0625 0.1875  0.375 0.0625 0.1875  0.375 0 0.1875  0.4166666666666667 0.0625 0.1875  0.4166666666666667 0 0.1875  0.4583333333333333 0.0625 0.1875  0.4583333333333333 0 0.1875  0.5 0.0625 0.1875  0.5 0 0.1875  0.5416666666666666 0.0625 0.1875  0.5416666666666666 0 0.1875  0.5833333333333334 0.0625 0.1875  0.5833333333333334 0 0.1875  0.625 0.0625 0.1875  0.625 0 0.1875  0.6666666666666666 0.0625 0.1875  0.6666666666666666 0 0.1875  0.7083333333333334 0.0625 0.1875  0.7083333333333334 0 0.1875  0.75 0.0625 0.1875  0.75 0 0.1875  0.7916666666666666 0.0625 0.1875  0.7916666666666666 0 0.1875  0.8333333333333334 0.0625 0.1875  0.8333333333333334 0 0.1875  0.875 0.0625 0.1875  0.875 0 0.1875  0.9166666666666666 0.0625 0.1875  0.9166666666666666 0 0.1875  0.9583333333333334 0.0625 0.1875  0.9583333333333334 0 0.1875  1 0.0625 0.1875  1 0 0.1875  0.3333333333333333 0.125 0.1875  0.375 0.125 0.1875  0.3333333333333333 0.125 0.125  0.4166666666666667 0.125 0.1875  0.4583333333333333 0.125 0.1875  0.5 0.125 0.1875  0.5416666666666666 0.125 0.1875  0.5833333333333334 0.125 0.1875  0.625 0.125 0.1875  0.6666666666666666 0.125 0.1875  0.7083333333333334 0.125 0.1875  0.75 0.125 0.1875  0.7916666666666666 0.125 0.1875  0.8333333333333334 0.125 0.1875  0.875 0.125 0.1875  0.9166666666666666 0.125 0.1875  0.9583333333333334 0.125 0.1875  1 0.125 0.1875  0.375 0.1875 0.1875  0.4166666666666667 0.1875 0.1875  0.4583333333333333 0.1875 0.1875  0.5 0.1875 0.1875  0.5416666666666666 0.1875 0.1875  0.5833333333333334 0.1875 0.1875  0.625 0.1875 0.1875  0.6666666666666666 0.1875 0.1875  0.7083333333333334 0.1875 0.1875  0.75 0.1875 0.1875  0.7916666666666666 0.1875 0.1875  0.8333333333333334 0.1875 0.1875  0.875 0.1875 0.1875  0.9166666666666666 0.1875 0.1875  0.9583333333333334 0.1875 0.1875  1 0.1875 0.1875  0.4583333333333333 0.25 0.1875  0.5 0.25 0.1875  0.5416666666666666 0.25 0.1875  0.5833333333333334 0.25 0.1875  0.625 0.25 0.1875  0.6666666666666666 0.25 0.1875  0.7083333333333334 0.25 0.1875  0.75 0.25 0.1875  0.7916666666666666 0.25 0.1875  0.8333333333333334 0.25 0.1875  0.875 0.25 0.1875  0.9166666666666666 0.25 0.1875  0.9583333333333334 0.25 0.1875  1 0.25 0.1875  0.75 0.3125 0.1875  0.7916666666666666 0.3125 0.1875  0.8333333333333334 0.3125 0.1875  0.875 0.3125 0.1875  0.9166666666666666 0.3125 0.1875  0.9583333333333334 0.3125 0.1875  1 0.3125 0.1875  0.875 0.375 0.1875  0.9166666666666666 0.375 0.1875  0.9583333333333334 0.375 0.1875  1 0.375 0.1875  0.9583333333333334 0.4375 0.1875  1 0.4375 0.1875  0.3333333333333333 0.0625 0.25  0.3333333333333333 0 0.25  0.375 0.0625 0.25  0.375 0 0.25  0.4166666666666667 0.0625 0.25  0.4166666666666667 0 0.25  0.4583333333333333 0.0625 0.25  0.4583333333333333 0 0.25  0.5 0.0625 0.25  0.5 0 0.25  0.5416666666666666 0.0625 0.25  0.5416666666666666 0 0.25  0.5833333333333334 0.0625 0.25  0.5833333333333334 0 0.25  0.625 0.0625 0.25  0.625 0 0.25  0.6666666666666666 0.0625 0.25  0.6666666666666666 0 0.25  0.7083333333333334 0.0625 0.25  0.7083333333333334 0 0.25  0.75 0.0625 0.25  0.75 0 0.25  0.7916666666666666 0.0625 0.25  0.7916666666666666 0 0.25  0.8333333333333334 0.0625 0.25  0.8333333333333334 0 0.25  0.875 0.0625 0.25  0.875 0 0.
[...]
<PointData  Vectors="f_10"> 
<DataArray  type="Float64"  Name="f_10"  NumberOfComponents="3" format="ascii">5.8175473912186290e-02 5.8538160099510746e-02 5.8621650856587382e-02  6.3589377758962451e-02 6.2095326318105673e-02 6.2185733356218152e-02  5.9728341073084619e-02 5.8389747301538876e-02 6.2120631039535648e-02  5.5813010642297232e-02 5.8266748460649789e-02 5.8355226766222665e-02  5.9723702750826023e-02 6.2031857518613703e-02 5.8479472177551645e-02  6.8591041843953995e-02 6.5497585079964157e-02 6.5593352708906275e-02  6.4824762917569972e-02 6.2045915072441248e-02 6.5508197603273061e-02  6.1001620520513639e-02 6.1910579903551789e-02 6.2004196029452861e-02  6.4821186190441027e-02 6.5414456155162462e-02 6.2141107129170287e-02  7.3214488120845037e-02 6.8799243570930452e-02 6.8898827601180587e-02  6.9544712600466421e-02 6.5582680785558914e-02 6.8804061234875549e-02  6.5809219505098063e-02 6.5438897707195118e-02 6.5536190170111142e-02  6.9542327685437944e-02 6.8706797684024434e-02 6.5681798010858952e-02  7.7479502161006478e-02 7.2030774516256113e-02 7.2132636988988794e-02  7.3913087249177653e-02 6.9038579541315148e-02 7.2037094925942166e-02  7.0267838887634465e-02 6.8889790213002428e-02 6.8989307825863155e-02  7.3911985326638702e-02 7.1937751250792145e-02 6.9140089086672990e-02  8.1395873672056904e-02 7.5205631797820041e-02 7.5308232306881259e-02  7.7945586538044218e-02 7.2433172154803202e-02 7.5219938656446356e-02  7.4400479581935200e-02 7.2282757384609764e-02 7.2383051621975475e-02  7.7945825533971919e-02 7.5119958325868999e-02 7.2535541450699806e-02  8.4966417113792089e-02 7.8324275510217020e-02 7.8426061271891390e-02  8.1651278578285608e-02 7.5771599543382681e-02 7.8352765672616870e-02  7.8223468301922949e-02 7.5623194972706462e-02 7.5722811579386595e-02  8.1652884391374456e-02 7.8253599515539965e-02 7.5873285908212892e-02  8.8189153607218143e-02 8.1376496228942025e-02 8.1475892822822374e-02  8.5034434340037518e-02 7.9047279713876858e-02 8.1425439556010268e-02  8.1748125151806364e-02 7.8905039209877167e-02 7.9002510396322792e-02  8.5037397524683672e-02 8.1328550741904329e-02 7.9146720362011147e-02  9.1058907071393941e-02 8.4342609682322822e-02 8.4438014672303441e-02  8.8095797170925416e-02 8.2243364848739328e-02 8.4418578569487646e-02  8.4981855134921819e-02 8.2112180135300944e-02 8.2206018844287743e-02  8.8100064975159958e-02 8.4325445010376199e-02 8.2338969330773629e-02  9.3568460843680507e-02 8.7193826091050017e-02 8.7283608527206458e-02  9.0833372228918310e-02 8.5333308472211461e-02 8.7303795937021159e-02  8.7928708306513628e-02 8.5218984758105118e-02 8.5307682910157348e-02  9.0838835850751448e-02 8.7215907894334116e-02 8.5423456188753216e-02  9.5709323992890283e-02 8.9891962772838480e-02 8.9974472996202703e-02  9.3242738353819285e-02 8.8280755486851922e-02 9.0043248082615393e-02  9.0589382628924589e-02 8.8190131871652921e-02 8.8272165224262261e-02  9.3249215387171278e-02 8.9962097908161939e-02 8.8363802063692196e-02  9.7472064215457621e-02 9.2388630961790646e-02 9.2462227458211296e-02  9.5316799936288041e-02 9.1038921553845659e-02 9.2588559772489684e-02  9.2960571357130747e-02 9.0979905811412576e-02 9.1053749155584937e-02  9.5324012320522566e-02 9.2515619435785040e-02 9.1113219736593226e-02  9.8846099117044034e-02 9.4624136909146409e-02 9.4687240668850273e-02  9.7044821097730008e-02 9.3549690749626560e-02 9.4879224184766284e-02  9.5033492638511463e-02 9.3531131897536632e-02 9.3595289820315564e-02  9.7052369638035110e-02 9.4815904480714461e-02 9.3613634443176025e-02  9.9818937222438536e-02 9.6526835233829933e-02 9.6578027886401532e-02  9.8410601255481636e-02 9.5742950854368680e-02 9.6840835063253222e-02  9.6791430478662496e-02 9.5774128694530808e-02 9.5827189006444075e-02  9.8417939461031737e-02 9.6788418511799659e-02 9.5795055729458664e-02  1.0037580964017852e-01 9.8015530245296786e-02 9.8053720401261910e-02  9.9390183183152889e-02 9.7537641132233399e-02 9.8384599574129053e-02  9.8206366762137925e-02 9.7626607892896469e-02 9.7667326540117949e-02  9.9396598008458070e-02 9.8344139899424421e-02 9.7576683435502173e-02  1.0050616021222340e-01 9.9015215420657374e-02 9.9039901360092275e-02  9.9952835773080437e-02 9.8849340200600225e-02 9.9414501943509898e-02  9.9236198591838853e-02 9.8996978106206876e-02 9.9024403985567680e-02  9.9957463697974674e-02 9.9386705449870508e-02 9.8874591754962188e-02  1.0025653504138014e-01 9.9534850115648582e-02 9.9546446071738195e-02  1.0008937546260120e-01 9.9623401244263388e-02 9.9875020817371346e-02  9.9831168914106219e-02 9.9797992928870122e-02 9.9811633760392426e-02  1.0009140864153318e-01 9.9860299781044770e-02 9.9635047813430744e-02  1.0000000000000001e-01 1.0000000000000001e-01 1.0000000000000001e-01  1.0000000000000001e-01 1.0000000000000001e-01 1.0000000000000001e-01  1.0000000000000001e-01 1.0000000000000001e-01 1.0000000000000001e-01  1.0000000000000001e-01 1.0000000000000001e-01 1.0000000000000001e-01  6.1578563541163540e-02 5.8520084614831158e-02 6.5626285799792655e-02  5.7733725585184865e-02 5.8354317091632725e-02 6.2092388710780051e-02  6.6407356753007130e-02 6.2283524472654693e-02 6.8905741680611546e-02  6.2647003907860863e-02 6.2108664369336930e-02 6.5605441649704485e-02  7.0899347023195933e-02 6.5955980276416651e-02 7.2141846683951724e-02  6.7222024496386049e-02 6.5770796041358964e-02 6.9055140619976085e-02  7.5070790208913427e-02 6.9560872607309823e-02 7.5345794234570870e-02  7.1483953447529586e-02 6.9364745275242459e-02 7.2460036565334257e-02  7.8932468509465198e-02 7.3106609525475624e-02 7.8516740095937329e-02  7.5452016679773790e-02 7.2899688285107928e-02 7.5824887864767987e-02  8.2490854255206608e-02 7.6589405477403658e-02 8.1643734464260612e-02  7.9140668772320441e-02 7.6372806214713235e-02 7.9143160331109852e-02  8.5748867800131634e-02 7.9994900511032377e-02 8.4706529463671992e-02  8.2560303487869760e-02 7.9770934736089566e-02 8.2398252261767307e-02  8.8706229561177005e-02 8.3298919820079864e-02 8.7675473524117586e-02  8.5717473156923338e-02 8.3071351633972224e-02 8.5563749835550595e-02  9.1359351528403784e-02 8.6467593541868906e-02 9.0510538363372153e-02  8.8614536704934230e-02 8.6241929068017156e-02 8.8602850550473733e-02  9.3700641905716392e-02 8.9457007447219766e-02 9.3159393952082128e-02  9.1248592963015060e-02 8.9240828055326599e-02 9.1466981801024916e-02  9.5717015334621916e-02 9.2212578040714061e-02 9.5554326374346812e-02  9.3609483725262732e-02 9.2015935407467678e-02 9.4093556324352179e-02  9.7387367096570282e-02 9.4668496949104744e-02 9.7607719550596397e-02  9.5676594129891990e-02 9.4504364612662692e-02 9.6402727457251078e-02  9.8679104662014822e-02 9.6748079599201633e-02 9.9206158543017259e-02  9.7414242509771071e-02 9.6632608012629642e-02 9.8292938187783549e-02  9.9546396022818617e-02 9.8367464793456677e-02 1.0020638740877716e-01  9.8766120253809361e-02 9.8318266438111993e-02 9.9635135135183142e-02  9.9949280382762698e-02 9.9451048366854783e-02 1.0045848858965298e-01  9.9652931676285833e-02 9.9473388472205423e-02 1.0026668078517925e-01  1.0000000000000001e-01 1.0000000000000001e-01 1.0000000000000001e-01  1.0000000000000001e-01 1.0000000000000001e-01 1.0000000000000001e-01  6.0035431762072371e-02 5.8703975321037417e-02 6.5807899224603436e-02  6.4724041305600374e-02 6.2559875080026417e-02 6.9264606829243458e-02  6.9116325089474920e-02 6.6341318081600709e-02 7.2694257562282608e-02  7.3230667975399899e-02 7.0059286968638834e-02 7.6100781569104187e-02  7.7081399585918545e-02 7.3713065308936968e-02 7.9476526755025007e-02  8.3932403747312381e-02 7.7580406231145524e-02 8.5190177091236746e-02  8.0679008588168996e-02 7.7291907038916127e-02 8.2803295976750846e-02  8.7086830392235595e-02 8.1083071210093435e-02 8.8256950735145709e-02  8.4029977493487645e-02 8.0775969770972178e-02 8.6052256224795370e-02  8.9949219895219590e-02 8.4456986026193073e-02 9.1197596640799961e-02  8.7136095364291802e-02 8.4136717012984114e-02 8.9182800614008614e-02  9.2509825752215960e-02 8.7662211452437827e-02 9.3952851600604473e-02  8.9993052216570460e-02 8.7336958245957844e-02 9.2140273927372826e-02  9.4752485446222556e-02 9.0649449180373418e-02 9.6444037866135174e-02  9.2588041325002618e-02 9.0330711050399359e-02 9.4852294702496412e-02  9.6651872414635312e-02 9.3359783704944632e-02 9.8566017850756735e-02  9.4896001982675740e-02 9.3063144923503344e-02 9.7223174239988830e-02  9.8169662389389831e-02 9.5724882030431696e-02 1.0017707566921402e-01  9.6874085109300456e-02 9.5471000478287549e-02 9.9125614228952774e-02  9.9251682871091262e-02 9.7668789433081549e-02 1.0108755649534279e-01  9.8454235664747453e-02 9.7483882829741450e-02 1.0038856173967109e-01  9.9842106795267782e-02 9.9114291110326588e-02 1.0106838036022929e-01  9.9536219989855720e-02 9.9025245849846774e-02 1.0078064776785652e-01  1.0000000000000001e-01 1.0000000000000001e-01 1.0000000000000001e-01  1.0000000000000001e-01 1.0000000000000001e-01 1.0000000000000001e-01  8.5862034542067228e-02 7.8702607344371664e-02 8.8940917015808627e-02  8.2740570401422964e-02 7.8347574041080975e-02 8.6658254988672634e-02  8.8896286757552623e-02 8.2276477839185652e-02 9.1983497698379102e-02  8.6023869526345206e-02 8.1897381570197755e-02 8.9880128511899651e-02  9.1631006190556905e-02 8.5694603721356163e-02 9.4834483872296746e-02  8.9064068810571509e-02 8.5300491286836741e-02 9.2924140920101456e-02  9.4047096162287680e-02 8.8913959070978113e-02 9.7403012826536045e-02  9.1845259668384208e-02 8.8517441035759453e-02 9.5706378330273456e-02  9.6116300986948677e-02 9.1883907307749549e-02 9.9566139890671770e-02  9.4338272768991330e-02 9.1501932956385854e-02 9.8114126161177512e-02  9.7797411528588854e-02 9.4546397326068926e-02 1.0115599848518622e-01  9.6494601876076239e-02 9.4201567063448247e-02 9.9995064963853394e-02  9.9032934139881568e-02 9.6836533133205546e-02 1.0194401561731051e-01  9.8237955867351581e-02 9.6559328013132287e-02 1.0114163609446213e-01  9.9759610339750282e-02 9.8683220074985700e-02 1.0163964215086006e-01  9.9454925098721392e-02 9.8515226551599527e-02 1.0126964730365885e-01  1.0000000000000001e-01 1.0000000000000001e-01 1.0000000000000001e-01  1.0000000000000001e-01 1.0000000000000001e-01 1.0000000000000001e-01  9.1292681926109953e-02 8.6616761868502867e-02 9.6561979223833527e-02  9.5717338381871325e-02 9.0301644549878171e-02 1.0053423338131426e-01  9.3928065723026075e-02 8.9866188667015512e-02 9.8986705766647295e-02  9.7517830790819160e-02 9.3276770714096374e-02 1.0208268714551549e-01  9.6218006804749387e-02 9.2872517077845093e-02 1.0082540642747621e-01  9.8865815099276000e-02 9.5931889961089478e-02 1.0273589118706275e-01  9.8080880866974349e-02 9.5591685393622158e-02 1.0184109849252314e-01  9.9694910318320756e-02 9.8204275509364614e-02 1.0215546158953921e-01  9.9395277153930497e-02 9.7980717467676351e-02 1.0171016828431589e-01  1.0000000000000001e-01 1.0000000000000001e-01 1.0000000000000001e-01  1.0000000000000001e-01 1.0000000000000001e-01 1.0000000000000001e-01  9.6004668652750411e-02 9.1518996493276994e-02 1.0158515445959401e-01  9.8733487663934236e-02 9.4997975194123854e-02 1.0345359918837338e-01  9.7959578787157983e-02 9.4612169535911061e-02 1.0247008118837371e-01  9.9642980723029309e-02 9.7707448621066770e-02 1.0261558973573806e-01  9.9348868204102075e-02 9.7443245575557724e-02 1.0209876211491711e-01  1.0000000000000001e-01 1.0000000000000001e-01 1.0000000000000001e-01  1.0000000000000001e-01 1.0000000000000001e-01 1.0000000000000001e-01  1.0000000000000001e-01 1.0000000000000001e-01 1.0000000000000001e-01  1.0000000000000001e-01 1.0000000000000001e-01 1.0000000000000001e-01  5.7731704563621346e-02 6.2000097783768061e-02 5.8447274057354677e-02  6.1573222706850853e-02 6.5534255278404285e-02 5.8614309302439299e-02  5.6382766238715201e-02 6.2189376990705668e-02 5.4711495340104735e-02  5.2446900922306930e-02 5.8391868380280168e-02 5.4552042933305567e-02  6.2645645071783301e-02 6.5509663023921486e-02 6.2205320316869789e-02  6.6403797319847094e-02 6.8810412609191143e-02 6.2381655548067572e-02  6.7221388699661183e-02 6.8957256169085268e-02 6.5869714207545588e-02  7.0897720022507285e-02 7.2044577832105730e-02 6.6056513927154920e-02  7.1484071022475990e-02 7.2361422436070161e-02 6.9464492317509896e-02  7.5071182510077578e-02 7.5247943453435370e-02 6.9662304879162584e-02  7.5452888868126095e-02 7.5726922109099995e-02 7.2998826783701842e-02  7.8934904724155305e-02 7.8419667722097020e-02 7.3207428042909431e-02  7.9142267363632654e-02 7.9047229912320299e-02 7.6469887530831865e-02  8.2495292892249716e-02 8.1548805834254376e-02 7.6688081284576812e-02  8.2562568941600176e-02 8.2305758513903413e-02 7.9864493642078524e-02  8.5755191800888378e-02 8.4615115371923830e-02 8.0089881899594623e-02  8.5720311569184429e-02 8.5476111179256686e-02 8.3159904370419729e-02  8.8714231457533460e-02 8.7588947157511060e-02 8.3388630379011536e-02  8.8617816106749348e-02 8.8521500870581749e-02 8.6323976949169892e-02  9.1368713733113532e-02 9.0430266853577607e-02 8.6550437430586769e-02  9.1252139626920054e-02 9.1393362393072372e-02 8.9314869426652718e-02  9.3710913182459221e-02 9.3086722256828167e-02 8.9531386164978993e-02  9.3613079457206969e-02 9.4029098813174727e-02 9.2080489623966574e-02  9.5727585557209185e-02 9.5490551020263562e-02 9.2276925023603518e-02  9.5679976101782027e-02 9.6348824884116072e-02 9.4558012611399206e-02  9.7397444866222635e-02 9.7554051075433912e-02 9.4721339871467802e-02  9.7417108773163036e-02 9.8250902426817319e-02 9.6674054590038402e-02  9.8687710013172225e-02 9.9163679751460468e-02 9.6788147263393617e-02  9.8768150206374986e-02 9.9606143398657379e-02 9.8346429185681913e-02  9.9552413214252122e-02 1.0017605808517974e-01 9.8393872537514485e-02  9.9653861766865678e-02 1.0025172962543177e-01 9.9487525607912450e-02  9.9951794027295787e-02 1.0044149562785769e-01 9.9463646922765117e-02  1.0000000000000001e-01 1.0000000000000001e-01 1.0000000000000001e-01  1.0000000000000001e-01 1.0000000000000001e-01 1.0000000000000001e-01  5.4429137760486239e-02 5.8400070321927740e-02 5.8491998326253056e-02  5.9450910890106963e-02 6.2140186082437432e-02 6.2235660329772867e-02  6.4142904008979124e-02 6.5797775233510686e-02 6.5895414143551670e-02  6.8533423150254819e-02 6.9396962539905821e-02 6.9495391928393574e-02  7.2645344754286731e-02 7.2947025429729084e-02 7.3044870540563564e-02  7.6496829565957061e-02 7.6445238746314273e-02 7.6541116752943103e-02  8.0101677297839818e-02 7.9878426784813522e-02 7.9970940652657710e-02  8.3469211424001960e-02 8.3223567627177239e-02 8.3311302379960761e-02  8.6603561031581913e-02 8.6447640209560681e-02 8.6529162886730182e-02  8.9502157317560088e-02 8.9506811910270989e-02 8.9580676784993221e-02  9.2153194804371522e-02 9.2345002716892999e-02 9.2409763561242683e-02  9.4531734736239437e-02 9.4891799004945820e-02 9.4946030168801612e-02  9.6594090483374487e-02 9.7059538613739976e-02 9.7101866384994864e-02  9.8270270087189998e-02 9.8738788094380470e-02 9.8767935264430312e-02  9.9454952269990154e-02 9.9788430164534675e-02 9.9803299172054327e-02  1.0000000000000001e-01 1.0000000000000001e-01 1.0000000000000001e-01  5.6802131888890002e-02 5.8703504880287860e-02 6.2400600701529994e-02  5.1681410061507942e-02 5.4758629735805954e-02 5.8666022098244446e-02  6.1610653557438506e-02 6.2553055206753444e-02 6.6064905715795250e-02  6.6133650420408849e-02 6.6333596118962876e-02 6.9683208675370797e-02  7.0393719923966591e-02 7.0056893508652199e-02 7.3264533683631658e-02  7.4409327236625897e-02 7.3722874663721016e-02 7.6805522308201896e-02  7.8194653411077952e-02 7.7321273579895919e-02 8.0291861986564295e-02  8.1759079855324754e-02 8.0832457951611716e-02 8.3698621390835171e-02  8.5106112207750217e-02 8.4227627987207107e-02 8.6989646392636094e-02  8.8231513571910489e-02 8.7468509692974469e-02 9.0116029117125226e-02  9.1120355021502342e-02 9.0506624983145934e-02 9.3013530949017917e-02  9.3742603440533603e-02 9.3282176240680498e-02 9.5598667783712205e-02  9.6046760752042659e-02 9.5722442309382330e-02 9.7762854721228504e-02  9.7950953639045601e-02 9.7738975389230681e-02 9.9363227925213557e-02  9.9330613598271403e-02 9.9220048522326437e-02 1.0020572705997866e-01  1.0000000000000001e-01 1.0000000000000001e-01 1.0000000000000001e-01  6.8598312440878370e-02 6.7061919223533009e-02 7.3580328103142273e-02  7.2763194673357554e-02 7.0887888345528394e-02 7.7177984698933777e-02  8.0448744229610722e-02 7.8323631168304958e-02 8.4211937212861021e-02  8.3978375618489087e-02 8.1892186627790825e-02 8.7579666478980814e-02  8.7292729819881273e-02 8.5320422031642223e-02 9.0778633629109623e-02  9.0373237050680150e-02 8.8567636549550646e-02 9.3734539476917317e-02  9.3184980334958867e-02 9.1584646160835045e-02 9.6349145277693254e-02  9.5669869290419110e-02 9.4313255559841117e-02 9.8492458415182740e-02  9.7736972653428789e-02 9.6685165643509791e-02 9.9991049952633623e-02  9.9248759672142361e-02 9.8618224822803413e-02 1.0060846632879482e-01  1.0000000000000001e-01 1.0000000000000001e-01 1.0000000000000001e-01  8.9817372090066919e-02 8.6564402041379357e-02 9.4472961256203025e-02  9.2777193024942778e-02 8.9838843100887911e-02 9.7099922525141727e-02  9.5399101108199047e-02 9.2872864626248067e-02 9.9203400197802452e-02  9.7585670576090008e-02 9.5616288314682066e-02 1.0058499772471312e-01  9.9191116730041801e-02 9.8013566426756932e-02 1.0097685129924258e-01  1.0000000000000001e-01 1.0000000000000001e-01 1.0000000000000001e-01  9.5191566381391202e-02 9.1427101441655320e-02 9.9855857582932722e-02  9.7470661614479759e-02 9.4554590411105532e-02 1.0111983534948545e-01  9.9147441398632158e-02 9.7420846408010187e-02 1.0130148654703063e-01  1.0000000000000001e-01 1.0000000000000001e-01 1.0000000000000001e-01  1.0000000000000001e-01 1.0000000000000001e-01 1.0000000000000001e-01  5.0800130931998699e-02 5.8727485539258460e-02 5.0603427862261505e-02  4.9668905785093670e-02 5.8636361053956823e-02 5.0736220338561004e-02  5.3645916444040813e-02 6.2448889763221056e-02 5.0900924092896017e-02  4.8037745291114577e-02 5.9036220209444074e-02 4.6583937424744461e-02  4.6749060823657637e-02 5.4622783243547725e-02 5.0449181243045531e-02  4.3933416193281415e-02 5.4914584343049452e-02 4.6418862532085270e-02  5.5024580474066304e-02 6.2214964297846245e-02 5.4840485719391992e-02  5.8902152728054206e-02 6.5766259944496891e-02 5.5012356724798817e-02  6.0033363768411278e-02 6.5713353230168733e-02 5.8799794831661929e-02  6.3827747573644705e-02 6.9036523574283706e-02 5.8984639183199399e-02  6.4723066779546368e-02 6.9168044329744549e-02 6.2657926052519491e-02  6.8439402593124768e-02 7.2285638412745698e-02 6.2860171254571218e-02  6.9116493329558548e-02 7.2596993406578297e-02 6.6440199821647505e-02  7.2749509822997521e-02 7.5523740041187157e-02 6.6662999798645303e-02  7.3231978052066979e-02 7.6004130079685678e-02 7.0157595627480765e-02  7.6766680706304755e-02 7.8748772432892938e-02 7.0402810629067156e-02  7.7083800610659781e-02 7.9381808624763975e-02 7.3809388060493281e-02  8.0496079015826338e-02 8.1948285462692561e-02 7.4077435916853465e-02  8.0682398239177194e-02 8.2711844150599692e-02 7.7384817482036197e-02  8.3939620328063805e-02 8.5100012703071382e-02 7.7674450734075709e-02  8.4034199391275863e-02 8.5965420093387493e-02 8.0864025868260608e-02  8.7095899065411042e-02 8.8171374383840678e-02 8.1172042706119149e-02  8.7140936097523214e-02 8.9101947662486677e-02 8.4218463110940209e-02  8.9959747890239583e-02 9.1117888469458161e-02 8.4539351889732425e-02  8.9998239086634388e-02 9.2066787823429877e-02 8.7410933064494420e-02  9.2521275609976347e-02 9.3880276651597913e-02 8.7736435317654737e-02  9.2593242288994279e-02 9.4787568819302295e-02 9.0395463918746824e-02  9.4764154951688870e-02 9.6379832565673423e-02 9.0714015362408681e-02  9.4900830117604834e-02 9.7168600201250011e-02 9.3117262810822832e-02  9.6662879430042439e-02 9.8511375187756045e-02 9.3413240871237702e-02  9.6878112391381610e-02 9.9082567441900901e-02 9.5513148142870569e-02  9.8178948315480061e-02 1.0013314419911942e-01 9.5765918275129008e-02  9.8457030298