<?xml version="1.0"?>
<VTKFile type="UnstructuredGrid"  version="0.1"  >
<UnstructuredGrid>
<Piece  NumberOfPoints="1944" NumberOfCells="9012">
<Points>
<DataArray  type="Float64"  NumberOfComponents="3"  format="ascii">0 0 0  0.04166666666666666 0 0  0.04166666666666666 0.0625 0  0.04166666666666666 0.0625 0.0625  0.04166666666666666 0 0.0625  0 0 0.0625  0 0.0625 0  0 0.0625 0.0625  0.08333333333333333 0 0  0.08333333333333333 0.0625 0  0.08333333333333333 0.0625 0.0625  0.08333333333333333 0 0.0625  0.125 0 0  0.125 0.0625 0  0.125 0.0625 0.0625  0.125 0 0.0625  0.1666666666666667 0 0  0.1666666666666667 0.0625 0  0.1666666666666667 0.0625 0.0625  0.1666666666666667 0 0.0625  0.2083333333333333 0 0  0.2083333333333333 0.0625 0  0.2083333333333333 0.0625 0.0625  0.2083333333333333 0 0.0625  0.25 0 0  0.25 0.0625 0  0.25 0.0625 0.0625  0.25 0 0.0625  0.2916666666666667 0 0  0.2916666666666667 0.0625 0  0.2916666666666667 0.0625 0.0625  0.2916666666666667 0 0.0625  0.3333333333333333 0 0.0625  0.3333333333333333 0.0625 0.0625  0.3333333333333333 0.0625 0  0.04166666666666666 0.125 0  0.04166666666666666 0.125 0.0625  0 0.125 0  0 0.125 0.0625  0.08333333333333333 0.125 0  0.08333333333333333 0.125 0.0625  0.125 0.125 0  0.125 0.125 0.0625  0.1666666666666667 0.125 0  0.1666666666666667 0.125 0.0625  0.2083333333333333 0.125 0  0.2083333333333333 0.125 0.0625  0.25 0.125 0  0.25 0.125 0.0625  0.2916666666666667 0.125 0  0.2916666666666667 0.125 0.0625  0.3333333333333333 0.125 0  0.3333333333333333 0.125 0.0625  0.375 0.125 0  0.375 0.125 0.0625  0.04166666666666666 0.1875 0  0.04166666666666666 0.1875 0.0625  0 0.1875 0  0 0.1875 0.0625  0.08333333333333333 0.1875 0  0.08333333333333333 0.1875 0.0625  0.125 0.1875 0  0.125 0.1875 0.0625  0.1666666666666667 0.1875 0  0.1666666666666667 0.1875 0.0625  0.2083333333333333 0.1875 0  0.2083333333333333 0.1875 0.0625  0.25 0.1875 0  0.25 0.1875 0.0625  0.2916666666666667 0.1875 0  0.2916666666666667 0.1875 0.0625  0.3333333333333333 0.1875 0  0.3333333333333333 0.1875 0.0625  0.375 0.1875 0  0.375 0.1875 0.0625  0.04166666666666666 0.25 0  0.04166666666666666 0.25 0.0625  0 0.25 0  0 0.25 0.0625  0.08333333333333333 0.25 0  0.08333333333333333 0.25 0.0625  0.125 0.25 0  0.125 0.25 0.0625  0.1666666666666667 0.25 0  0.1666666666666667 0.25 0.0625  0.2083333333333333 0.25 0  0.2083333333333333 0.25 0.0625  0.25 0.25 0  0.25 0.25 0.0625  0.2916666666666667 0.25 0  0.2916666666666667 0.25 0.0625  0.3333333333333333 0.25 0  0.3333333333333333 0.25 0.0625  0.375 0.25 0  0.375 0.25 0.0625  0.04166666666666666 0.3125 0  0.04166666666666666 0.3125 0.0625  0 0.3125 0  0 0.3125 0.0625  0.08333333333333333 0.3125 0  0.08333333333333333 0.3125 0.0625  0.125 0.3125 0  0.125 0.3125 0.0625  0.1666666666666667 0.3125 0  0.1666666666666667 0.3125 0.0625  0.2083333333333333 0.3125 0  0.2083333333333333 0.3125 0.0625  0.25 0.3125 0  0.25 0.3125 0.0625  0.2916666666666667 0.3125 0  0.2916666666666667 0.3125 0.0625  0.3333333333333333 0.3125 0  0.3333333333333333 0.3125 0.0625  0.375 0.3125 0  0.375 0.3125 0.0625  0.04166666666666666 0.375 0  0.04166666666666666 0.375 0.0625  0 0.375 0  0 0.375 0.0625  0.08333333333333333 0.375 0  0.08333333333333333 0.375 0.0625  0.125 0.375 0  0.125 0.375 0.0625  0.1666666666666667 0.375 0  0.1666666666666667 0.375 0.0625  0.2083333333333333 0.375 0  0.2083333333333333 0.375 0.0625  0.25 0.375 0  0.25 0.375 0.0625  0.2916666666666667 0.375 0  0.2916666666666667 0.375 0.0625  0.3333333333333333 0.375 0  0.3333333333333333 0.375 0.0625  0.04166666666666666 0.4375 0  0.04166666666666666 0.4375 0.0625  0 0.4375 0  0 0.4375 0.0625  0.08333333333333333 0.4375 0  0.08333333333333333 0.4375 0.0625  0.125 0.4375 0  0.125 0.4375 0.0625  0.1666666666666667 0.4375 0  0.1666666666666667 0.4375 0.0625  0.2083333333333333 0.4375 0  0.2083333333333333 0.4375 0.0625  0.25 0.4375 0  0.25 0.4375 0.0625  0.2916666666666667 0.4375 0  0.2916666666666667 0.4375 0.0625  0.3333333333333333 0.4375 0  0.3333333333333333 0.4375 0.0625  0.375 0.4375 0  0.375 0.4375 0.0625  0.04166666666666666 0.5 0  0.04166666666666666 0.5 0.0625  0 0.5 0  0 0.5 0.0625  0.08333333333333333 0.5 0  0.08333333333333333 0.5 0.0625  0.125 0.5 0  0.125 0.5 0.0625  0.1666666666666667 0.5 0  0.1666666666666667 0.5 0.0625  0.2083333333333333 0.5 0  0.2083333333333333 0.5 0.0625  0.25 0.5 0  0.25 0.5 0.0625  0.2916666666666667 0.5 0  0.2916666666666667 0.5 0.0625  0.3333333333333333 0.5 0  0.3333333333333333 0.5 0.0625  0.375 0.5 0  0.375 0.5 0.0625  0.04166666666666666 0.5625 0  0.04166666666666666 0.5625 0.0625  0 0.5625 0  0 0.5625 0.0625  0.08333333333333333 0.5625 0  0.08333333333333333 0.5625 0.0625  0.125 0.5625 0  0.125 0.5625 0.0625  0.1666666666666667 0.5625 0  0.1666666666666667 0.5625 0.0625  0.2083333333333333 0.5625 0  0.2083333333333333 0.5625 0.0625  0.25 0.5625 0  0.25 0.5625 0.0625  0.2916666666666667 0.5625 0  0.2916666666666667 0.5625 0.0625  0.3333333333333333 0.5625 0  0.3333333333333333 0.5625 0.0625  0.375 0.5625 0  0.375 0.5625 0.0625  0.4166666666666667 0.5625 0.0625  0.04166666666666666 0.625 0  0.04166666666666666 0.625 0.0625  0 0.625 0  0 0.625 0.0625  0.08333333333333333 0.625 0  0.08333333333333333 0.625 0.0625  0.125 0.625 0  0.125 0.625 0.0625  0.1666666666666667 0.625 0  0.1666666666666667 0.625 0.0625  0.2083333333333333 0.625 0  0.2083333333333333 0.625 0.0625  0.25 0.625 0  0.25 0.625 0.0625  0.2916666666666667 0.625 0  0.2916666666666667 0.625 0.0625  0.3333333333333333 0.625 0  0.3333333333333333 0.625 0.0625  0.375 0.625 0  0.375 0.625 0.0625  0.4166666666666667 0.625 0.0625  0.04166666666666666 0.6875 0  0.04166666666666666 0.6875 0.0625  0 0.6875 0  0 0.6875 0.0625  0.08333333333333333 0.6875 0  0.08333333333333333 0.6875 0.0625  0.125 0.6875 0  0.125 0.6875 0.0625  0.1666666666666667 0.6875 0  0.1666666666666667 0.6875 0.0625  0.2083333333333333 0.6875 0  0.2083333333333333 0.6875 0.0625  0.25 0.6875 0  0.25 0.6875 0.0625  0.2916666666666667 0.6875 0  0.2916666666666667 0.6875 0.0625  0.3333333333333333 0.6875 0  0.3333333333333333 0.6875 0.0625  0.375 0.6875 0  0.375 0.6875 0.0625  0.4166666666666667 0.6875 0.0625  0.4166666666666667 0.6875 0  0.04166666666666666 0.75 0  0.04166666666666666 0.75 0.0625  0 0.75 0  0 0.75 0.0625  0.08333333333333333 0.75 0  0.08333333333333333 0.75 0.0625  0.125 0.75 0  0.125 0.75 0.0625  0.1666666666666667 0.75 0  0.1666666666666667 0.75 0.0625  0.2083333333333333 0.75 0  0.2083333333333333 0.75 0.0625  0.25 0.75 0  0.25 0.75 0.0625  0.2916666666666667 0.75 0  0.2916666666666667 0.75 0.0625  0.3333333333333333 0.75 0  0.3333333333333333 0.75 0.0625  0.375 0.75 0  0.375 0.75 0.0625  0.4166666666666667 0.75 0  0.4166666666666667 0.75 0.0625  0.04166666666666666 0.8125 0  0.04166666666666666 0.8125 0.0625  0 0.8125 0  0 0.8125 0.0625  0.08333333333333333 0.8125 0  0.08333333333333333 0.8125 0.0625  0.125 0.8125 0  0.125 0.8125 0.0625  0.1666666666666667 0.8125 0  0.1666666666666667 0.8125 0.0625  0.2083333333333333 0.8125 0  0.2083333333333333 0.8125 0.0625  0.25 0.8125 0  0.25 0.8125 0.0625  0.2916666666666667 0.8125 0  0.2916666666666667 0.8125 0.0625  0.3333333333333333 0.8125 0  0.3333333333333333 0.8125 0.0625  0.375 0.8125 0  0.375 0.8125 0.0625  0.4166666666666667 0.8125 0  0.4166666666666667 0.8125 0.0625  0.4583333333333333 0.8125 0  0.4583333333333333 0.8125 0.0625  0.04166666666666666 0.875 0  0.04166666666666666 0.875 0.0625  0 0.875 0  0 0.875 0.0625  0.08333333333333333 0.875 0  0.08333333333333333 0.875 0.0625  0.125 0.875 0  0.125 0.875 0.0625  0.1666666666666667 0.875 0  0.1666666666666667 0.875 0.0625  0.2083333333333333 0.875 0  0.2083333333333333 0.875 0.0625  0.25 0.875 0  0.25 0.875 0.0625  0.2916666666666667 0.875 0  0.2916666666666667 0.875 0.0625  0.3333333333333333 0.875 0  0.3333333333333333 0.875 0.0625  0.375 0.875 0  0.375 0.875 0.0625  0.4166666666666667 0.875 0  0.4166666666666667 0.875 0.0625  0.4583333333333333 0.875 0  0.4583333333333333 0.875 0.0625  0.5 0.875 0.0625  0.04166666666666666 0.9375 0  0.04166666666666666 0.9375 0.0625  0 0.9375 0  0 0.9375 0.0625  0.08333333333333333 0.9375 0  0.08333333333333333 0.9375 0.0625  0.125 0.9375 0  0.125 0.9375 0.0625  0.1666666666666667 0.9375 0  0.1666666666666667 0.9375 0.0625  0.2083333333333333 0.9375 0  0.2083333333333333 0.9375 0.0625  0.25 0.9375 0  0.25 0.9375 0.0625  0.2916666666666667 0.9375 0  0.2916666666666667 0.9375 0.0625  0.3333333333333333 0.9375 0  0.3333333333333333 0.9375 0.0625  0.375 0.9375 0  0.375 0.9375 0.0625  0.4166666666666667 0.9375 0  0.4166666666666667 0.9375 0.0625  0.4583333333333333 0.9375 0  0.4583333333333333 0.9375 0.0625  0.5 0.9375 0.0625  0.5 0.9375 0  0.04166666666666666 1 0  0.04166666666666666 1 0.0625  0 1 0  0 1 0.0625  0.08333333333333333 1 0  0.08333333333333333 1 0.0625  0.125 1 0  0.125 1 0.0625  0.1666666666666667 1 0  0.1666666666666667 1 0.0625  0.2083333333333333 1 0  0.2083333333333333 1 0.0625  0.25 1 0  0.25 1 0.0625  0.2916666666666667 1 0  0.2916666666666667 1 0.0625  0.3333333333333333 1 0  0.3333333333333333 1 0.0625  0.375 1 0  0.375 1 0.0625  0.4166666666666667 1 0  0.4166666666666667 1 0.0625  0.4583333333333333 1 0  0.4583333333333333 1 0.0625  0.5 1 0  0.5 1 0.0625  0.5416666666666666 1 0.0625  0.04166666666666666 0.0625 0.125  0.04166666666666666 0 0.125  0 0 0.125  0 0.0625 0.125  0.08333333333333333 0.0625 0.125  0.08333333333333333 0 0.125  0.125 0.0625 0.125  0.125 0 0.125  0.1666666666666667 0.0625 0.125  0.1666666666666667 0 0.125  0.2083333333333333 0.0625 0.125  0.2083333333333333 0 0.125  0.25 0.0625 0.125  0.25 0 0.125  0.2916666666666667 0.0625 0.125  0.2916666666666667 0 0.125  0.3333333333333333 0.0625 0.125  0.3333333333333333 0 0.125  0.04166666666666666 0.125 0.125  0 0.125 0.125  0.08333333333333333 0.125 0.125  0.125 0.125 0.125  0.1666666666666667 0.125 0.125  0.2083333333333333 0.125 0.125  0.25 0.125 0.125  0.2916666666666667 0.125 0.125  0.3333333333333333 0.125 0.125  
[...]
<PointData  Vectors="f_13"> 
<DataArray  type="Float64"  Name="f_13"  NumberOfComponents="3" format="ascii">9.9999999999999992e-02 0.0000000000000000e+00 0.0000000000000000e+00  9.9999999999999992e-02 0.0000000000000000e+00 0.0000000000000000e+00  1.0000000000000002e-01 0.0000000000000000e+00 0.0000000000000000e+00  9.9999999999999811e-02 -3.3883010661941711e-16 -1.6970844303847777e-16  1.0000000000000002e-01 0.0000000000000000e+00 0.0000000000000000e+00  9.9999999999999992e-02 0.0000000000000000e+00 0.0000000000000000e+00  9.9999999999999992e-02 0.0000000000000000e+00 0.0000000000000000e+00  1.0000000000000002e-01 0.0000000000000000e+00 0.0000000000000000e+00  9.9999999999999992e-02 0.0000000000000000e+00 0.0000000000000000e+00  1.0000000000000002e-01 0.0000000000000000e+00 0.0000000000000000e+00  9.9999999999999797e-02 -4.0186617773001070e-16 -3.5926818847890435e-16  1.0000000000000002e-01 0.0000000000000000e+00 0.0000000000000000e+00  9.9999999999999992e-02 0.0000000000000000e+00 0.0000000000000000e+00  1.0000000000000002e-01 0.0000000000000000e+00 0.0000000000000000e+00  1.0000000000000007e-01 -8.8294835878471023e-17 -2.6583539604342493e-16  1.0000000000000002e-01 0.0000000000000000e+00 0.0000000000000000e+00  9.9999999999999992e-02 0.0000000000000000e+00 0.0000000000000000e+00  1.0000000000000002e-01 0.0000000000000000e+00 0.0000000000000000e+00  1.0000000000000003e-01 -1.3381654008509561e-16 -2.4076366389522537e-16  1.0000000000000002e-01 0.0000000000000000e+00 0.0000000000000000e+00  9.9999999999999992e-02 0.0000000000000000e+00 0.0000000000000000e+00  1.0000000000000002e-01 0.0000000000000000e+00 0.0000000000000000e+00  9.9999999999999950e-02 -1.8510405602498598e-16 -1.7249988950131148e-16  1.0000000000000002e-01 0.0000000000000000e+00 0.0000000000000000e+00  9.9999999999999992e-02 0.0000000000000000e+00 0.0000000000000000e+00  1.0000000000000002e-01 0.0000000000000000e+00 0.0000000000000000e+00  9.9999999999999811e-02 -1.5634702319226073e-16 -1.0555471051999779e-16  1.0000000000000002e-01 0.0000000000000000e+00 0.0000000000000000e+00  9.9999999999999992e-02 0.0000000000000000e+00 0.0000000000000000e+00  1.0000000000000002e-01 0.0000000000000000e+00 0.0000000000000000e+00  9.9999999999999645e-02 -2.7622582914734546e-16 -2.8825204247196199e-16  1.0000000000000002e-01 0.0000000000000000e+00 0.0000000000000000e+00  1.0000000000000002e-01 0.0000000000000000e+00 0.0000000000000000e+00  9.9999999999999700e-02 -1.3889860357021698e-16 -1.0133632024856690e-16  1.0000000000000002e-01 0.0000000000000000e+00 0.0000000000000000e+00  1.0000000000000002e-01 0.0000000000000000e+00 0.0000000000000000e+00  9.9999999999999450e-02 -4.7141980114454804e-16 -2.9507227717246940e-16  9.9999999999999992e-02 0.0000000000000000e+00 0.0000000000000000e+00  1.0000000000000002e-01 0.0000000000000000e+00 0.0000000000000000e+00  1.0000000000000002e-01 0.0000000000000000e+00 0.0000000000000000e+00  9.9999999999999117e-02 -8.0171867774195062e-16 -6.3588281208903845e-16  1.0000000000000002e-01 0.0000000000000000e+00 0.0000000000000000e+00  9.9999999999999603e-02 -5.8682413841640560e-16 -5.1960572076050408e-16  1.0000000000000002e-01 0.0000000000000000e+00 0.0000000000000000e+00  1.0000000000000028e-01 -2.5219785662504728e-16 -2.1681390081326028e-16  1.0000000000000002e-01 0.0000000000000000e+00 0.0000000000000000e+00  1.0000000000000064e-01 -1.4934820941680805e-16 -1.7101951797749034e-16  1.0000000000000002e-01 0.0000000000000000e+00 0.0000000000000000e+00  1.0000000000000051e-01 -5.4928004376071441e-17 -7.9852905414760520e-17  1.0000000000000002e-01 0.0000000000000000e+00 0.0000000000000000e+00  9.9999999999999964e-02 -2.1211391664710560e-16 -3.0613579086079841e-16  1.0000000000000002e-01 0.0000000000000000e+00 0.0000000000000000e+00  9.9999999999999839e-02 -1.9000542067012666e-16 -1.0900176866061932e-16  1.0000000000000002e-01 0.0000000000000000e+00 0.0000000000000000e+00  9.9999999999999728e-02 -1.6594090344389045e-17 -6.7816514033737290e-17  1.0000000000000002e-01 0.0000000000000000e+00 0.0000000000000000e+00  9.9999999999999672e-02 -3.1420657448360140e-16 -2.1749561777098648e-16  9.9999999999999992e-02 0.0000000000000000e+00 0.0000000000000000e+00  1.0000000000000002e-01 0.0000000000000000e+00 0.0000000000000000e+00  1.0000000000000002e-01 0.0000000000000000e+00 0.0000000000000000e+00  9.9999999999999395e-02 -5.4512968295477358e-16 -4.1425724549683712e-16  1.0000000000000002e-01 0.0000000000000000e+00 0.0000000000000000e+00  9.9999999999999312e-02 -6.1484828146512655e-16 -4.0568653238021460e-16  1.0000000000000002e-01 0.0000000000000000e+00 0.0000000000000000e+00  9.9999999999999353e-02 -5.4262930761197381e-16 -4.0282707704869875e-16  1.0000000000000002e-01 0.0000000000000000e+00 0.0000000000000000e+00  9.9999999999999534e-02 -3.0424418762994824e-16 -3.5247665365004681e-16  1.0000000000000002e-01 0.0000000000000000e+00 0.0000000000000000e+00  9.9999999999999548e-02 -1.0561281065615387e-16 -3.0530697906408771e-16  1.0000000000000002e-01 0.0000000000000000e+00 0.0000000000000000e+00  9.9999999999999409e-02 3.6576773715799480e-17 -2.9769707845741708e-16  1.0000000000000002e-01 0.0000000000000000e+00 0.0000000000000000e+00  9.9999999999999381e-02 -1.2407794093406544e-16 -1.9111038809425710e-16  1.0000000000000002e-01 0.0000000000000000e+00 0.0000000000000000e+00  9.9999999999999256e-02 9.8595663214935462e-17 -1.9961028078208040e-16  1.0000000000000002e-01 0.0000000000000000e+00 0.0000000000000000e+00  9.9999999999999561e-02 -3.1222663130379106e-16 -2.9643493741004009e-16  9.9999999999999992e-02 0.0000000000000000e+00 0.0000000000000000e+00  1.0000000000000002e-01 0.0000000000000000e+00 0.0000000000000000e+00  1.0000000000000002e-01 0.0000000000000000e+00 0.0000000000000000e+00  9.9999999999999298e-02 -4.4273982731471886e-16 -3.8183670247048626e-16  1.0000000000000002e-01 0.0000000000000000e+00 0.0000000000000000e+00  9.9999999999999076e-02 -3.8816252878137696e-16 -4.5429054114618189e-16  1.0000000000000002e-01 0.0000000000000000e+00 0.0000000000000000e+00  9.9999999999998840e-02 -3.8696272645144986e-16 -3.3341293488016689e-16  1.0000000000000002e-01 0.0000000000000000e+00 0.0000000000000000e+00  9.9999999999998784e-02 -2.1607854400158837e-16 -3.0786956880379562e-16  1.0000000000000002e-01 0.0000000000000000e+00 0.0000000000000000e+00  9.9999999999998687e-02 1.2906229280781919e-17 -3.1123311044102488e-16  1.0000000000000002e-01 0.0000000000000000e+00 0.0000000000000000e+00  9.9999999999998576e-02 3.1118448752491527e-16 -3.5238384713407604e-16  1.0000000000000002e-01 0.0000000000000000e+00 0.0000000000000000e+00  9.9999999999998576e-02 2.9479061461514270e-17 -4.0587114991525131e-16  1.0000000000000002e-01 0.0000000000000000e+00 0.0000000000000000e+00  9.9999999999998562e-02 2.8218259065460823e-16 -3.3302851365297611e-16  1.0000000000000002e-01 0.0000000000000000e+00 0.0000000000000000e+00  9.9999999999999672e-02 -1.6912333249199968e-16 -2.8490267490950899e-16  9.9999999999999992e-02 0.0000000000000000e+00 0.0000000000000000e+00  1.0000000000000002e-01 0.0000000000000000e+00 0.0000000000000000e+00  1.0000000000000002e-01 0.0000000000000000e+00 0.0000000000000000e+00  9.9999999999999367e-02 -3.4674982503146376e-16 -3.8478132340369235e-16  1.0000000000000002e-01 0.0000000000000000e+00 0.0000000000000000e+00  9.9999999999999215e-02 -1.0092037748879437e-16 -3.5718146446314042e-16  1.0000000000000002e-01 0.0000000000000000e+00 0.0000000000000000e+00  9.9999999999998937e-02 -1.4699500475827422e-16 -4.0498540030507326e-16  1.0000000000000002e-01 0.0000000000000000e+00 0.0000000000000000e+00  9.9999999999998798e-02 -1.1315621686907037e-16 -3.9881108706258103e-16  1.0000000000000002e-01 0.0000000000000000e+00 0.0000000000000000e+00  9.9999999999998757e-02 1.7976168037568133e-16 -3.7064109331685521e-16  1.0000000000000002e-01 0.0000000000000000e+00 0.0000000000000000e+00  9.9999999999998701e-02 4.8308832584943195e-16 -2.6199660506934550e-16  1.0000000000000002e-01 0.0000000000000000e+00 0.0000000000000000e+00  9.9999999999998576e-02 1.4297500504975094e-16 -4.9361113544410201e-16  1.0000000000000002e-01 0.0000000000000000e+00 0.0000000000000000e+00  9.9999999999998687e-02 4.6545721087676179e-16 -2.8908705873230069e-16  1.0000000000000002e-01 0.0000000000000000e+00 0.0000000000000000e+00  9.9999999999999645e-02 -1.0561427644074060e-16 -2.8865949526777990e-16  9.9999999999999992e-02 0.0000000000000000e+00 0.0000000000000000e+00  1.0000000000000002e-01 0.0000000000000000e+00 0.0000000000000000e+00  1.0000000000000002e-01 0.0000000000000000e+00 0.0000000000000000e+00  9.9999999999999437e-02 -1.7564798814768419e-16 -3.3304484325913594e-16  1.0000000000000002e-01 0.0000000000000000e+00 0.0000000000000000e+00  9.9999999999999228e-02 -1.1954568143292354e-17 -2.2036100203328328e-16  1.0000000000000002e-01 0.0000000000000000e+00 0.0000000000000000e+00  9.9999999999999117e-02 7.7219357070349107e-17 -3.1566308852369363e-16  1.0000000000000002e-01 0.0000000000000000e+00 0.0000000000000000e+00  9.9999999999999020e-02 9.0703049488679435e-17 -3.4789741055728429e-16  1.0000000000000002e-01 0.0000000000000000e+00 0.0000000000000000e+00  9.9999999999998951e-02 3.5456769642103720e-16 -3.1381000862259415e-16  1.0000000000000002e-01 0.0000000000000000e+00 0.0000000000000000e+00  9.9999999999998937e-02 6.1462441587063177e-16 -2.5184235098467062e-16  1.0000000000000002e-01 0.0000000000000000e+00 0.0000000000000000e+00  9.9999999999998798e-02 4.0463347289924990e-16 -3.5684353075905395e-16  1.0000000000000002e-01 0.0000000000000000e+00 0.0000000000000000e+00  9.9999999999999686e-02 -2.7323060219000626e-16 -3.7769444809153826e-16  9.9999999999999992e-02 0.0000000000000000e+00 0.0000000000000000e+00  1.0000000000000002e-01 0.0000000000000000e+00 0.0000000000000000e+00  1.0000000000000002e-01 0.0000000000000000e+00 0.0000000000000000e+00  9.9999999999999672e-02 -2.5159860712713818e-16 -4.0956537945877438e-16  1.0000000000000002e-01 0.0000000000000000e+00 0.0000000000000000e+00  9.9999999999999672e-02 -5.2237618376800335e-18 -4.0262004731440195e-16  1.0000000000000002e-01 0.0000000000000000e+00 0.0000000000000000e+00  9.9999999999999714e-02 7.1236547609373524e-17 -2.9836706838074396e-16  1.0000000000000002e-01 0.0000000000000000e+00 0.0000000000000000e+00  9.9999999999999714e-02 2.3644445408249722e-16 -3.5779551210692785e-16  1.0000000000000002e-01 0.0000000000000000e+00 0.0000000000000000e+00  9.9999999999999672e-02 4.2875148944523509e-16 -4.0500221337310688e-16  1.0000000000000002e-01 0.0000000000000000e+00 0.0000000000000000e+00  9.9999999999999756e-02 6.2489501493744014e-16 -2.7674339249974630e-16  1.0000000000000002e-01 0.0000000000000000e+00 0.0000000000000000e+00  9.9999999999999825e-02 5.1699682331777049e-16 -2.2678271870848951e-16  1.0000000000000002e-01 0.0000000000000000e+00 0.0000000000000000e+00  9.9999999999999908e-02 5.7391662850377638e-16 -2.0483746121033699e-16  1.0000000000000002e-01 0.0000000000000000e+00 0.0000000000000000e+00  9.9999999999999645e-02 -2.8439905657598057e-16 -3.3795836775316521e-16  9.9999999999999992e-02 0.0000000000000000e+00 0.0000000000000000e+00  1.0000000000000002e-01 0.0000000000000000e+00 0.0000000000000000e+00  1.0000000000000002e-01 0.0000000000000000e+00 0.0000000000000000e+00  9.9999999999999437e-02 -3.0817317427427041e-16 -3.4136192981965322e-16  1.0000000000000002e-01 0.0000000000000000e+00 0.0000000000000000e+00  9.9999999999999353e-02 3.2060172429718105e-17 -3.7388633698211436e-16  1.0000000000000002e-01 0.0000000000000000e+00 0.0000000000000000e+00  9.9999999999999228e-02 4.6934619679030536e-19 -4.1498942249708064e-16  1.0000000000000002e-01 0.0000000000000000e+00 0.0000000000000000e+00  9.9999999999999131e-02 1.1933412796502357e-16 -3.2821972780474435e-16  1.0000000000000002e-01 0.0000000000000000e+00 0.0000000000000000e+00  9.9999999999999242e-02 4.7275535302049216e-16 -3.1194612498204496e-16  1.0000000000000002e-01 0.0000000000000000e+00 0.0000000000000000e+00  9.9999999999999353e-02 6.8077275608634865e-16 -9.4789982782404561e-17  1.0000000000000002e-01 0.0000000000000000e+00 0.0000000000000000e+00  9.9999999999999228e-02 3.7904061587126175e-16 -2.2372330193300895e-16  1.0000000000000002e-01 0.0000000000000000e+00 0.0000000000000000e+00  9.9999999999999201e-02 4.3455396792465966e-16 -2.5911950861905027e-16  1.0000000000000002e-01 0.0000000000000000e+00 0.0000000000000000e+00  9.9999999999999506e-02 -2.7332234134294719e-16 -3.1871367480153861e-16  9.9999999999999992e-02 0.0000000000000000e+00 0.0000000000000000e+00  1.0000000000000002e-01 0.0000000000000000e+00 0.0000000000000000e+00  1.0000000000000002e-01 0.0000000000000000e+00 0.0000000000000000e+00  9.9999999999999228e-02 -2.5836815611056098e-16 -3.4389851505907981e-16  1.0000000000000002e-01 0.0000000000000000e+00 0.0000000000000000e+00  9.9999999999999145e-02 5.1991047592248344e-17 -3.3747765549734780e-16  1.0000000000000002e-01 0.0000000000000000e+00 0.0000000000000000e+00  9.9999999999999145e-02 1.4781372417876718e-16 -3.4379738065369705e-16  1.0000000000000002e-01 0.0000000000000000e+00 0.0000000000000000e+00  9.9999999999999048e-02 2.7584789766198339e-16 -3.4461283189183353e-16  1.0000000000000002e-01 0.0000000000000000e+00 0.0000000000000000e+00  9.9999999999998868e-02 4.0331612448709873e-16 -3.3623995258139972e-16  1.0000000000000002e-01 0.0000000000000000e+00 0.0000000000000000e+00  9.9999999999998979e-02 5.6558286571090083e-16 -1.1754043802464701e-16  1.0000000000000002e-01 0.0000000000000000e+00 0.0000000000000000e+00  9.9999999999998923e-02 4.0342501846016663e-16 -9.9503107169619824e-17  1.0000000000000002e-01 0.0000000000000000e+00 0.0000000000000000e+00  9.9999999999998937e-02 4.3712963418818993e-16 -1.3746688603538741e-17  9.9999999999998854e-02 3.8536278649243096e-16 1.5762710063431949e-16  1.0000000000000002e-01 0.0000000000000000e+00 0.0000000000000000e+00  9.9999999999999575e-02 -2.2974432104487444e-16 -3.7579010982456327e-16  9.9999999999999992e-02 0.0000000000000000e+00 0.0000000000000000e+00  1.0000000000000002e-01 0.0000000000000000e+00 0.0000000000000000e+00  1.0000000000000002e-01 0.0000000000000000e+00 0.0000000000000000e+00  9.9999999999999367e-02 -1.8805984589477396e-16 -3.1884733973840739e-16  1.0000000000000002e-01 0.0000000000000000e+00 0.0000000000000000e+00  9.9999999999999173e-02 5.8183054529025790e-17 -3.4637392620325223e-16  1.0000000000000002e-01 0.0000000000000000e+00 0.0000000000000000e+00  9.9999999999999062e-02 1.1295053715830511e-16 -3.7478951507122592e-16  1.0000000000000002e-01 0.0000000000000000e+00 0.0000000000000000e+00  9.9999999999999076e-02 3.3757515391066640e-16 -3.4003769802066523e-16  1.0000000000000002e-01 0.0000000000000000e+00 0.0000000000000000e+00  9.9999999999999117e-02 6.2482236528206386e-16 -1.7484930702079313e-16  1.0000000000000002e-01 0.0000000000000000e+00 0.0000000000000000e+00  9.9999999999999062e-02 5.0753282611155360e-16 -5.9059074541942552e-17  1.0000000000000002e-01 0.0000000000000000e+00 0.0000000000000000e+00  9.9999999999999034e-02 3.2878069878082465e-16 -6.8060212975628561e-17  1.0000000000000002e-01 0.0000000000000000e+00 0.0000000000000000e+00  9.9999999999999006e-02 2.1414788912138985e-16 -9.1714564398245679e-17  9.9999999999998979e-02 6.4059906384177368e-17 -7.0503385375370516e-18  1.0000000000000002e-01 0.0000000000000000e+00 0.0000000000000000e+00  9.9999999999999631e-02 -1.0609155216538885e-16 -2.9083853173664151e-16  9.9999999999999992e-02 0.0000000000000000e+00 0.0000000000000000e+00  1.0000000000000002e-01 0.0000000000000000e+00 0.0000000000000000e+00  1.0000000000000002e-01 0.0000000000000000e+00 0.0000000000000000e+00  9.9999999999999395e-02 -7.5555496651278652e-17 -2.7136617081697143e-16  1.0000000000000002e-01 0.0000000000000000e+00 0.0000000000000000e+00  9.9999999999999201e-02 1.6361711471930604e-16 -3.7482403194068885e-16  1.0000000000000002e-01 0.0000000000000000e+00 0.0000000000000000e+00  9.9999999999999048e-02 2.3235416777670411e-16 -4.0325437408676980e-16  1.0000000000000002e-01 0.0000000000000000e+00 0.0000000000000000e+00  9.9999999999998951e-02 3.4977117347359822e-16 -3.7430541262542371e-16  1.0000000000000002e-01 0.0000000000000000e+00 0.0000000000000000e+00  9.9999999999998923e-02 5.7160315857093329e-16 -2.3664856760041802e-16  1.0000000000000002e-01 0.0000000000000000e+00 0.0000000000000000e+00  9.9999999999998923e-02 4.6706632537792550e-16 -1.3052632858821367e-16  1.0000000000000002e-01 0.0000000000000000e+00 0.0000000000000000e+00  9.9999999999998881e-02 2.3961138195399260e-16 -1.0222647429102088e-16  1.0000000000000002e-01 0.0000000000000000e+00 0.0000000000000000e+00  9.9999999999998840e-02 1.6196297295539752e-16 -1.8918726345834409e-17  9.9999999999998687e-02 3.3195029716417808e-17 -1.4993907600609302e-17  1.0000000000000002e-01 0.0000000000000000e+00 0.0000000000000000e+00  1.0000000000000002e-01 0.0000000000000000e+00 0.0000000000000000e+00  9.9999999999999575e-02 2.6256084149628396e-17 -3.0711941064546567e-16  9.9999999999999992e-02 0.0000000000000000e+00 0.0000000000000000e+00  1.0000000000000002e-01 0.0000000000000000e+00 0.0000000000000000e+00  1.0000000000000002e-01 0.0000000000000000e+00 0.0000000000000000e+00  9.9999999999999353e-02 5.0695746748994063e-17 -3.1310270671137423e-16  1.0000000000000002e-01 0.0000000000000000e+00 0.0000000000000000e+00  9.9999999999999076e-02 2.2061605350249853e-16 -4.3616273254427997e-16  1.0000000000000002e-01 0.0000000000000000e+00 0.0000000000000000e+00  9.9999999999999090e-02 3.8044366797927353e-16 -3.3978900654747898e-16  1.0000000000000002e-01 0.0000000000000000e+00 0.0000000000000000e+00  9.9999999999999117e-02 5.3440416187749271e-16 -3.0270047596720789e-16  1.0000000000000002e-01 0.0000000000000000e+00 0.0000000000000000e+00  9.9999999999999062e-02 5.8555494009900433e-16 -2.4362918089731945e-16  1.0000000000000002e-01 0.0000000000000000e+00 0.0000000000000000e+00  9.9999999999999117e-02 3.7022473238069284e-16 -1.1004553594877631e-16  1.0000000000000002e-01 0.0000000000000000e+00 0.0000000000000000e+00  9.9999999999999187e-02 2.5199589581556636e-16 -9.6458000635533754e-17  1.0000000000000002e-01 0.0000000000000000e+00 0.0000000000000000e+00  9.9999999999999048e-02 1.4331677557706844e-16 -1.2882299404842297e-16  1.0000000000000002e-01 0.0000000000000000e+00 0.0000000000000000e+00  9.9999999999998798e-02 4.5877172241623566e-18 -4.5006081853776689e-17  1.0000000000000002e-01 0.0000000000000000e+00 0.0000000000000000e+00  9.9999999999999700e-02 -1.2314766125834481e-17 -3.3616405488284147e-16  9.9999999999999992e-02 0.0000000000000000e+00 0.0000000000000000e+00  1.0000000000000002e-01 0.0000000000000000e+00 0.0000000000000000e+00  1.0000000000000002e-01 0.0000000000000000e+00 0.0000000000000000e+00  9.9999999999999659e-02 7.7228651544172045e-17 -4.2525578652661753e-16  1.0000000000000002e-01 0.0000000000000000e+00 0.0000000000000000e+00  9.9999999999999728e-02 3.3118114670455327e-16 -3.7078312981995059e-16  1.0000000000000002e-01 0.0000000000000000e+00 0.0000000000000000e+00  9.9999999999999770e-02 3.5335513782022923e-16 -3.7964988870277360e-16  1.0000000000000002e-01 0.0000000000000000e+00 0.0000000000000000e+00  9.9999999999999839e-02 4.1517706585927691e-16 -2.9453710172369853e-16  1.0000000000000002e-01 0.0000000000000000e+00 0.0000000000000000e+00  9.9999999999999922e-02 6.3332794332762874e-16 -1.1740245377872242e-16  1.0000000000000002e-01 0.0000000000000000e+00 0.0000000000000000e+00  9.9999999999999728e-02 4.3418715607405126e-16 -1.2718800783461265e-16  1.0000000000000002e-01 0.0000000000000000e+00 0.0000000000000000e+00  9.9999999999999575e-02 2.6200471063911958e-16 -7.2838592181574186e-17  1.0000000000000002e-01 0.0000000000000000e+00 0.0000000000000000e+00  9.9999999999999367e-02 2.5727493850956411e-16 -2.2329541563269025e-17  1.0000000000000002e-01 0.0000000000000000e+00 0.0000000000000000e+00  9.9999999999999090e-02 1.5042048354547916e-16 -8.0979569157829430e-17  1.0000000000000002e-01 0.0000000000000000e+00 0.000000