<?xml version="1.0"?>
<VTKFile type="UnstructuredGrid"  version="0.1"  >
<UnstructuredGrid>
<Piece  NumberOfPoints="2022" NumberOfCells="9237">
<Points>
<DataArray  type="Float64"  NumberOfComponents="3"  format="ascii">0 0 0.1875  0.04166666666666666 0 0.1875  0.04166666666666666 0 0.25  0.04166666666666666 0.0625 0.25  0 0 0.25  0 0.0625 0.25  0.08333333333333333 0 0.1875  0.08333333333333333 0.0625 0.1875  0.08333333333333333 0.0625 0.25  0.08333333333333333 0 0.25  0.125 0 0.1875  0.125 0.0625 0.1875  0.125 0.0625 0.25  0.125 0 0.25  0.1666666666666667 0 0.1875  0.1666666666666667 0 0.25  0.1666666666666667 0.0625 0.25  0.2083333333333333 0 0.25  0.2083333333333333 0.0625 0.25  0.25 0 0.1875  0.2916666666666667 0 0.1875  0.2916666666666667 0 0.25  0.2916666666666667 0.0625 0.25  0.25 0 0.25  0.3333333333333333 0 0.25  0.3333333333333333 0.0625 0.25  0.125 0.125 0.25  0.1666666666666667 0.125 0.25  0.04166666666666666 0.0625 0.3125  0.04166666666666666 0 0.3125  0 0 0.3125  0 0.0625 0.3125  0.08333333333333333 0.0625 0.3125  0.08333333333333333 0 0.3125  0.125 0.0625 0.3125  0.125 0 0.3125  0.1666666666666667 0.0625 0.3125  0.1666666666666667 0 0.3125  0.2083333333333333 0.0625 0.3125  0.2083333333333333 0 0.3125  0.25 0.0625 0.25  0.25 0.0625 0.3125  0.25 0 0.3125  0.2916666666666667 0.0625 0.3125  0.2916666666666667 0 0.3125  0.3333333333333333 0.0625 0.3125  0.3333333333333333 0 0.3125  0.04166666666666666 0.125 0.3125  0 0.125 0.3125  0 0.125 0.25  0.08333333333333333 0.125 0.3125  0.125 0.125 0.3125  0.1666666666666667 0.125 0.3125  0.2083333333333333 0.125 0.3125  0.25 0.125 0.3125  0.2916666666666667 0.125 0.3125  0.3333333333333333 0.125 0.3125  0.375 0.125 0.3125  0.04166666666666666 0.1875 0.3125  0 0.1875 0.3125  0.1666666666666667 0.1875 0.3125  0.2083333333333333 0.1875 0.3125  0.04166666666666666 0.0625 0.375  0.04166666666666666 0 0.375  0 0 0.375  0 0.0625 0.375  0.08333333333333333 0.0625 0.375  0.08333333333333333 0 0.375  0.125 0.0625 0.375  0.125 0 0.375  0.1666666666666667 0.0625 0.375  0.1666666666666667 0 0.375  0.2083333333333333 0.0625 0.375  0.2083333333333333 0 0.375  0.25 0.0625 0.375  0.25 0 0.375  0.2916666666666667 0.0625 0.375  0.2916666666666667 0 0.375  0.3333333333333333 0.0625 0.375  0.3333333333333333 0 0.375  0.04166666666666666 0.125 0.375  0 0.125 0.375  0.08333333333333333 0.125 0.375  0.125 0.125 0.375  0.1666666666666667 0.125 0.375  0.2083333333333333 0.125 0.375  0.25 0.125 0.375  0.2916666666666667 0.125 0.375  0.3333333333333333 0.125 0.375  0.375 0.125 0.375  0.04166666666666666 0.1875 0.375  0 0.1875 0.375  0.08333333333333333 0.1875 0.375  0.125 0.1875 0.375  0.1666666666666667 0.1875 0.375  0.2083333333333333 0.1875 0.375  0.25 0.1875 0.375  0.2916666666666667 0.1875 0.375  0.3333333333333333 0.1875 0.375  0.375 0.1875 0.375  0.04166666666666666 0.25 0.375  0 0.25 0.375  0 0.25 0.3125  0.08333333333333333 0.25 0.375  0.04166666666666666 0.3125 0.375  0 0.3125 0.375  0.04166666666666666 0.0625 0.4375  0.04166666666666666 0 0.4375  0 0 0.4375  0 0.0625 0.4375  0.08333333333333333 0.0625 0.4375  0.08333333333333333 0 0.4375  0.125 0.0625 0.4375  0.125 0 0.4375  0.1666666666666667 0.0625 0.4375  0.1666666666666667 0 0.4375  0.2083333333333333 0.0625 0.4375  0.2083333333333333 0 0.4375  0.25 0.0625 0.4375  0.25 0 0.4375  0.2916666666666667 0.0625 0.4375  0.2916666666666667 0 0.4375  0.3333333333333333 0.0625 0.4375  0.3333333333333333 0 0.4375  0.04166666666666666 0.125 0.4375  0 0.125 0.4375  0.08333333333333333 0.125 0.4375  0.125 0.125 0.4375  0.1666666666666667 0.125 0.4375  0.2083333333333333 0.125 0.4375  0.25 0.125 0.4375  0.2916666666666667 0.125 0.4375  0.3333333333333333 0.125 0.4375  0.375 0.125 0.4375  0.04166666666666666 0.1875 0.4375  0 0.1875 0.4375  0.08333333333333333 0.1875 0.4375  0.125 0.1875 0.4375  0.1666666666666667 0.1875 0.4375  0.2083333333333333 0.1875 0.4375  0.25 0.1875 0.4375  0.2916666666666667 0.1875 0.4375  0.3333333333333333 0.1875 0.4375  0.375 0.1875 0.4375  0.4166666666666667 0.1875 0.4375  0.04166666666666666 0.25 0.4375  0 0.25 0.4375  0.08333333333333333 0.25 0.4375  0.125 0.25 0.4375  0.1666666666666667 0.25 0.375  0.1666666666666667 0.25 0.4375  0.2083333333333333 0.25 0.375  0.2083333333333333 0.25 0.4375  0.25 0.25 0.4375  0.2916666666666667 0.25 0.4375  0.3333333333333333 0.25 0.4375  0.375 0.25 0.4375  0.4166666666666667 0.25 0.4375  0.04166666666666666 0.3125 0.4375  0 0.3125 0.4375  0.08333333333333333 0.3125 0.375  0.08333333333333333 0.3125 0.4375  0.125 0.3125 0.4375  0.2083333333333333 0.3125 0.4375  0.1666666666666667 0.3125 0.4375  0.25 0.3125 0.4375  0.04166666666666666 0.375 0.375  0.04166666666666666 0.375 0.4375  0 0.375 0.375  0 0.375 0.4375  0.08333333333333333 0.375 0.4375  0.125 0.375 0.4375  0.04166666666666666 0.4375 0.375  0.04166666666666666 0.4375 0.4375  0 0.4375 0.375  0 0.4375 0.4375  0.08333333333333333 0.4375 0.4375  0.04166666666666666 0.5 0.4375  0 0.5 0.4375  0 0.5 0.375  0.08333333333333333 0.5 0.4375  0.04166666666666666 0.5625 0.4375  0 0.5625 0.4375  0.04166666666666666 0.0625 0.5  0.04166666666666666 0 0.5  0 0 0.5  0 0.0625 0.5  0.08333333333333333 0.0625 0.5  0.08333333333333333 0 0.5  0.125 0.0625 0.5  0.125 0 0.5  0.1666666666666667 0.0625 0.5  0.1666666666666667 0 0.5  0.2083333333333333 0.0625 0.5  0.2083333333333333 0 0.5  0.25 0.0625 0.5  0.25 0 0.5  0.2916666666666667 0.0625 0.5  0.2916666666666667 0 0.5  0.3333333333333333 0.0625 0.5  0.3333333333333333 0 0.5  0.04166666666666666 0.125 0.5  0 0.125 0.5  0.08333333333333333 0.125 0.5  0.125 0.125 0.5  0.1666666666666667 0.125 0.5  0.2083333333333333 0.125 0.5  0.25 0.125 0.5  0.2916666666666667 0.125 0.5  0.3333333333333333 0.125 0.5  0.375 0.125 0.5  0.04166666666666666 0.1875 0.5  0 0.1875 0.5  0.08333333333333333 0.1875 0.5  0.125 0.1875 0.5  0.1666666666666667 0.1875 0.5  0.2083333333333333 0.1875 0.5  0.25 0.1875 0.5  0.2916666666666667 0.1875 0.5  0.3333333333333333 0.1875 0.5  0.375 0.1875 0.5  0.4166666666666667 0.1875 0.5  0.04166666666666666 0.25 0.5  0 0.25 0.5  0.08333333333333333 0.25 0.5  0.125 0.25 0.5  0.1666666666666667 0.25 0.5  0.2083333333333333 0.25 0.5  0.25 0.25 0.5  0.2916666666666667 0.25 0.5  0.3333333333333333 0.25 0.5  0.375 0.25 0.5  0.4166666666666667 0.25 0.5  0.04166666666666666 0.3125 0.5  0 0.3125 0.5  0.08333333333333333 0.3125 0.5  0.125 0.3125 0.5  0.1666666666666667 0.3125 0.5  0.2083333333333333 0.3125 0.5  0.25 0.3125 0.5  0.2916666666666667 0.3125 0.4375  0.2916666666666667 0.3125 0.5  0.3333333333333333 0.3125 0.4375  0.3333333333333333 0.3125 0.5  0.375 0.3125 0.4375  0.375 0.3125 0.5  0.4166666666666667 0.3125 0.4375  0.4166666666666667 0.3125 0.5  0.04166666666666666 0.375 0.5  0 0.375 0.5  0.08333333333333333 0.375 0.5  0.125 0.375 0.5  0.1666666666666667 0.375 0.4375  0.1666666666666667 0.375 0.5  0.2083333333333333 0.375 0.4375  0.2083333333333333 0.375 0.5  0.25 0.375 0.4375  0.25 0.375 0.5  0.2916666666666667 0.375 0.4375  0.2916666666666667 0.375 0.5  0.3333333333333333 0.375 0.5  0.375 0.375 0.5  0.4166666666666667 0.375 0.5  0.4583333333333333 0.375 0.5  0.04166666666666666 0.4375 0.5  0 0.4375 0.5  0.08333333333333333 0.4375 0.5  0.125 0.4375 0.4375  0.125 0.4375 0.5  0.1666666666666667 0.4375 0.5  0.2083333333333333 0.4375 0.5  0.25 0.4375 0.5  0.2916666666666667 0.4375 0.5  0.3333333333333333 0.4375 0.5  0.04166666666666666 0.5 0.5  0 0.5 0.5  0.08333333333333333 0.5 0.5  0.125 0.5 0.4375  0.125 0.5 0.5  0.1666666666666667 0.5 0.5  0.04166666666666666 0.5625 0.5  0 0.5625 0.5  0.08333333333333333 0.5625 0.5  0.125 0.5625 0.5  0.1666666666666667 0.5625 0.5  0.04166666666666666 0.625 0.5  0 0.625 0.5  0.08333333333333333 0.625 0.5  0.04166666666666666 0.0625 0.5625  0.04166666666666666 0 0.5625  0 0 0.5625  0 0.0625 0.5625  0.08333333333333333 0.0625 0.5625  0.08333333333333333 0 0.5625  0.125 0.0625 0.5625  0.125 0 0.5625  0.1666666666666667 0.0625 0.5625  0.1666666666666667 0 0.5625  0.2083333333333333 0.0625 0.5625  0.2083333333333333 0 0.5625  0.25 0.0625 0.5625  0.25 0 0.5625  0.2916666666666667 0.0625 0.5625  0.2916666666666667 0 0.5625  0.3333333333333333 0.0625 0.5625  0.3333333333333333 0 0.5625  0.375 0 0.5625  0.375 0.0625 0.5625  0.04166666666666666 0.125 0.5625  0 0.125 0.5625  0.08333333333333333 0.125 0.5625  0.125 0.125 0.5625  0.1666666666666667 0.125 0.5625  0.2083333333333333 0.125 0.5625  0.25 0.125 0.5625  0.2916666666666667 0.125 0.5625  0.3333333333333333 0.125 0.5625  0.375 0.125 0.5625  0.04166666666666666 0.1875 0.5625  0 0.1875 0.5625  0.08333333333333333 0.1875 0.5625  0.125 0.1875 0.5625  0.1666666666666667 0.1875 0.5625  0.2083333333333333 0.1875 0.5625  0.25 0.1875 0.5625  0.2916666666666667 0.1875 0.5625  0.3333333333333333 0.1875 0.5625  0.375 0.1875 0.5625  0.4166666666666667 0.1875 0.5625  0.04166666666666666 0.25 0.5625  0 0.25 0.5625  0.08333333333333333 0.25 0.5625  0.125 0.25 0.5625  0.1666666666666667 0.25 0.5625  0.2083333333333333 0.25 0.5625  0.25 0.25 0.5625  0.2916666666666667 0.25 0.5625  0.3333333333333333 0.25 0.5625  0.375 0.25 0.5625  0.4166666666666667 0.25 0.5625  0.4583333333333333 0.25 0.5625  0.04166666666666666 0.3125 0.5625  0 0.3125 0.5625  0.08333333333333333 0.3125 0.5625  0.125 0.3125 0.5625  0.1666666666666667 0.3125 0.5625  0.2083333333333333 0.3125 0.5625  0.25 0.3125 0.5625  0.2916666666666667 0.3125 0.5625  0.3333333333333333 0.3125 0.5625  0.375 0.3125 0.5625  0.4166666666666667 0.3125 0.5625  0.4583333333333333 0.3125 0.5625  0.04166666666666666 0.375 0.5625  0 0.375 0.5625  0.08333333333333333 0.375 0.5625  0.125 0.375 0.5625  0.1666666666666667 0.375 0.5625  0.2083333333333333 0.375 0.5625  0.25 0.375 0.5625  0.2916666666666667 0.375 0.5625  0.3333333333333333 0.375 0.5625  0.375 0.375 0.5625  0.4166666666666667 0.375 0.5625  0.4583333333333333 0.375 0.5625  0.04166666666666666 0.4375 0.5625  0 0.4375 0.5625  0.08333333333333333 0.4375 0.5625  0.125 0.4375 0.5625  0.1666666666666667 0.4375 0.5625  0.20
[...]
<PointData  Vectors="f_10"> 
<DataArray  type="Float64"  Name="f_10"  NumberOfComponents="3" format="ascii">0.0000000000000000e+00 0.0000000000000000e+00 0.0000000000000000e+00  6.8467447311118639e-03 2.1574876537097661e-02 8.8582058909643241e-03  6.6676124644206051e-03 2.1450813365788760e-02 7.3308172094244907e-03  2.2483248574375185e-03 1.3419666578672704e-02 7.5229006620101064e-03  0.0000000000000000e+00 0.0000000000000000e+00 0.0000000000000000e+00  0.0000000000000000e+00 0.0000000000000000e+00 0.0000000000000000e+00  1.4266506459731099e-02 3.3705424116937666e-02 1.7235215285607987e-02  9.2268540988757128e-03 2.6309583819747420e-02 1.7073461380262080e-02  8.6965233926195162e-03 2.6208400231308594e-02 1.4567009217349958e-02  1.3691655593989490e-02 3.3547029681832076e-02 1.4582876068129129e-02  2.1656760169084743e-02 4.1542509729801606e-02 2.4670542942274099e-02  1.6654280965637151e-02 3.5109552968243203e-02 2.4388106162698799e-02  1.5599360127237593e-02 3.5102352615914385e-02 2.1087135031677539e-02  2.0600710622810391e-02 4.1503344864972772e-02 2.1244390920835316e-02  2.8855220685742321e-02 4.7071177233991346e-02 3.1205911076474926e-02  2.7317988960070531e-02 4.7278755751116952e-02 2.7306857417567599e-02  2.2503001866527237e-02 4.1666768152156655e-02 2.7112440956082496e-02  3.3811325061780605e-02 5.1820929702559061e-02 3.2841560148344440e-02  2.9239716439382279e-02 4.6834118221954192e-02 3.2671434866434444e-02  4.2052334618135463e-02 5.5446212413985847e-02 4.1963233290121436e-02  4.8037745291114577e-02 5.9036220209444074e-02 4.6583937424744461e-02  4.5914216514737351e-02 5.9304653297232390e-02 4.2628706371626197e-02  4.1738433332057789e-02 5.5181432197505952e-02 4.2492910959375962e-02  4.0016776147461089e-02 5.5730488875556504e-02 3.7913522631420740e-02  5.1502896373441610e-02 6.2703910817724959e-02 4.7084481173222351e-02  4.7462656268338961e-02 5.8888413481976536e-02 4.6947560186807749e-02  1.2109488050486917e-02 2.9136054883354134e-02 2.1024027671639762e-02  1.8754909904364986e-02 3.6118938668888663e-02 2.7048612305516685e-02  2.1690543228392754e-03 1.3329377470917683e-02 6.3425452239747552e-03  6.5471183530971993e-03 2.1298250904783791e-02 6.1197543690913788e-03  0.0000000000000000e+00 0.0000000000000000e+00 0.0000000000000000e+00  0.0000000000000000e+00 0.0000000000000000e+00 0.0000000000000000e+00  8.3594295527233044e-03 2.6039255368063619e-02 1.2487618031478869e-02  1.3325452533063692e-02 3.3325064475920242e-02 1.2391968632227194e-02  1.4936413720605403e-02 3.4948387174453123e-02 1.8306009087001276e-02  1.9935237395874883e-02 4.1308952969075399e-02 1.8325695781317510e-02  2.1500636745595051e-02 4.1596369634266259e-02 2.3817563434470067e-02  2.6345458978867725e-02 4.7179037220297378e-02 2.3887037702869436e-02  2.7923920761582170e-02 4.6880828523143202e-02 2.9039841164854075e-02  3.2560637295368622e-02 5.1851494821418431e-02 2.9118198392902556e-02  3.5664632828815566e-02 5.1227035350096935e-02 3.7766616249433040e-02  3.4141720009293323e-02 5.1341185775984143e-02 3.3996858559596506e-02  3.8572494159988667e-02 5.5832239890255736e-02 3.4067276280434766e-02  4.0097695757552461e-02 5.5332214564504177e-02 3.8707889384346585e-02  4.4354372870086270e-02 5.9445355417014817e-02 3.8776249771526460e-02  4.5771418158363560e-02 5.9063902311750842e-02 4.3219749306409885e-02  4.9890728846356674e-02 6.2873022175834001e-02 4.3297183753659152e-02  1.8437115974501241e-03 1.0870105344573219e-02 6.5101147568426476e-03  0.0000000000000000e+00 0.0000000000000000e+00 0.0000000000000000e+00  0.0000000000000000e+00 0.0000000000000000e+00 0.0000000000000000e+00  5.6412412992881194e-03 2.0188997764089504e-02 1.2512781815480687e-02  1.1482593837261667e-02 2.9047005310662486e-02 1.8284920332313701e-02  1.7771837994521228e-02 3.6082421562277180e-02 2.3780041159597583e-02  2.4131761523288851e-02 4.1819976796500444e-02 2.9008042003750137e-02  3.0393952096918957e-02 4.6703636818059828e-02 3.3983109946374983e-02  3.6438669085222114e-02 5.1062573468781354e-02 3.8703743934523034e-02  4.2218096799597413e-02 5.5107135122821206e-02 4.3215158794057441e-02  4.7721069908965005e-02 5.8970347607935750e-02 4.7567962810977728e-02  1.6780748305755743e-03 9.0859234632698106e-03 6.5606235031768134e-03  0.0000000000000000e+00 0.0000000000000000e+00 0.0000000000000000e+00  1.5187215885288966e-02 3.1118133180023252e-02 2.3754237808223083e-02  2.1256186012941079e-02 3.7009965030998800e-02 2.8993834841451325e-02  2.1157879725451950e-03 1.3195970111501195e-02 5.3274924025147538e-03  6.4616086705501629e-03 2.1096771009306892e-02 5.0916454145748507e-03  0.0000000000000000e+00 0.0000000000000000e+00 0.0000000000000000e+00  0.0000000000000000e+00 0.0000000000000000e+00 0.0000000000000000e+00  8.1369426546909849e-03 2.5795904427639592e-02 1.0657296607917985e-02  1.3082121265235041e-02 3.3020980096345715e-02 1.0472763067056336e-02  1.4502099567037153e-02 3.4677044164680107e-02 1.5826219025788908e-02  1.9501554983232691e-02 4.0986809954325902e-02 1.5714267745971445e-02  2.0841339401181071e-02 4.1359005671898548e-02 2.0843000939154158e-02  2.5711846729947592e-02 4.6899389454051497e-02 2.0770437759314603e-02  2.7049944505035107e-02 4.6713742595385216e-02 2.5715819573631900e-02  3.1736617263159447e-02 5.1649609165658306e-02 2.5661156043373760e-02  3.3082405019236059e-02 5.1259174270106220e-02 3.0453920299442713e-02  3.7584598218721406e-02 5.5723483528857948e-02 3.0410128702972612e-02  3.8910180618644333e-02 5.5319745330152714e-02 3.5068503113669373e-02  4.3249700441235613e-02 5.9412116365357530e-02 3.5037655942008583e-02  4.4509420514658261e-02 5.9109173593331080e-02 3.9570134565742106e-02  4.8716312547098864e-02 6.2903505355275752e-02 3.9561273459838599e-02  1.7915437303008233e-03 1.0768953998365128e-02 5.5001948096424476e-03  0.0000000000000000e+00 0.0000000000000000e+00 0.0000000000000000e+00  5.4415138291815015e-03 2.0020384480410852e-02 1.0717877458762274e-02  1.1069095722716237e-02 2.8848960763603208e-02 1.5854627267567051e-02  1.7122132502613553e-02 3.5903797746474238e-02 2.0857734212622606e-02  2.3250870331313931e-02 4.1692815916786259e-02 2.5728551062657271e-02  2.9305815854850523e-02 4.6644309324937558e-02 3.0470222480555538e-02  3.5208478064120828e-02 5.1061004411143869e-02 3.5088078198608735e-02  4.0906140776828304e-02 5.5154952320231938e-02 3.9585331110936407e-02  4.6376407161554181e-02 5.9064369302791055e-02 4.3980774372402054e-02  1.6260427738076519e-03 9.0125808413196937e-03 5.5540965495160426e-03  0.0000000000000000e+00 0.0000000000000000e+00 0.0000000000000000e+00  4.7773213488125936e-03 1.6928611668105831e-02 1.0787205174658997e-02  9.1090801659697990e-03 2.4155189384355586e-02 1.5859116224219368e-02  1.4561627189621834e-02 3.0996511760083046e-02 2.0844795002043687e-02  2.0391090554534894e-02 3.6919539364843532e-02 2.5717408011239774e-02  2.6318755888651530e-02 4.2114099477793439e-02 3.0470210252830223e-02  3.2199873462748781e-02 4.6796130527964740e-02 3.5102349367187487e-02  3.7938867315969495e-02 5.1143329052651329e-02 3.9608098069851355e-02  4.3490175075447869e-02 5.5281821925524423e-02 4.4005496642794587e-02  1.5226604429028549e-03 7.6364217421861008e-03 5.5621483376949851e-03  0.0000000000000000e+00 0.0000000000000000e+00 0.0000000000000000e+00  0.0000000000000000e+00 0.0000000000000000e+00 0.0000000000000000e+00  4.3803736601460922e-03 1.4509896338367264e-02 1.0803162833011762e-02  1.4526744542922407e-03 6.4983099481113254e-03 5.5494897353973519e-03  0.0000000000000000e+00 0.0000000000000000e+00 0.0000000000000000e+00  2.0799130825052596e-03 1.3014513832735001e-02 4.4000299282349314e-03  6.3975956530452297e-03 2.0835965611033722e-02 4.1576098756676049e-03  0.0000000000000000e+00 0.0000000000000000e+00 0.0000000000000000e+00  0.0000000000000000e+00 0.0000000000000000e+00 0.0000000000000000e+00  7.9882384459653184e-03 2.5471417162952436e-02 8.9586494221315146e-03  1.2915537402677472e-02 3.2620670829229419e-02 8.6969778334255263e-03  1.4212897052614051e-02 3.4291585975473202e-02 1.3509256512970805e-02  1.9214255673147832e-02 4.0534840767888630e-02 1.3271450303616887e-02  2.0399998520458106e-02 4.0975398074057721e-02 1.8048561585395622e-02  2.5295378645015926e-02 4.6458581160584364e-02 1.7829665657310395e-02  2.6456997954041470e-02 4.6374359347240081e-02 2.2572296612579180e-02  3.1190948373934484e-02 5.1261668289059412e-02 2.2370222111336536e-02  3.2349849075115296e-02 5.0988715486561316e-02 2.7075028186339826e-02  3.6918804577218821e-02 5.5412812092943173e-02 2.6894086519466776e-02  3.8059941313859043e-02 5.5129460098871923e-02 3.1551553456308487e-02  4.2481695903983326e-02 5.9190267152493439e-02 3.1399472768343803e-02  4.3574541761972271e-02 5.8997162499268181e-02 3.5998318588749072e-02  4.7873057136096603e-02 6.2768260829298858e-02 3.5883979711416797e-02  1.7557125438484797e-03 1.0626231729729119e-02 4.5741243544087651e-03  0.0000000000000000e+00 0.0000000000000000e+00 0.0000000000000000e+00  5.3081929456754180e-03 1.9776991530941309e-02 9.0534827142680005e-03  1.0792118632402358e-02 2.8548050995196816e-02 1.3590524782539389e-02  1.6682903296158520e-02 3.5596361194118249e-02 1.8126056703701272e-02  2.2646867983523302e-02 4.1416484869617499e-02 2.2648562264256929e-02  2.8548007963975126e-02 4.6422205168471786e-02 2.7148633897718832e-02  3.4318652757904203e-02 5.0905043819329823e-02 3.1618162707934501e-02  3.9921731199963846e-02 5.5065051278476808e-02 3.6051716265338457e-02  4.5335141046986271e-02 5.9039175664999506e-02 4.0445801923132546e-02  1.5893928937369547e-03 8.9036506599721212e-03 4.6307639972065218e-03  0.0000000000000000e+00 0.0000000000000000e+00 0.0000000000000000e+00  4.6467325297312760e-03 1.6747259499467735e-02 9.1300696744603532e-03  8.8449214800762430e-03 2.3935358491304945e-02 1.3615968165872074e-02  1.4136021391996051e-02 3.0767196065538450e-02 1.8137420453155507e-02  1.9795720285482567e-02 3.6708829648975427e-02 2.2659196997565065e-02  2.5560398445085654e-02 4.1941632494314096e-02 2.7163511638181620e-02  3.1296943463360337e-02 4.6674154357863366e-02 3.1637449682241560e-02  3.6931914364096624e-02 5.1073853480781473e-02 3.6072638819940536e-02  4.2420535477252351e-02 5.5265219348383604e-02 4.0462686896747015e-02  4.7742441173234222e-02 5.9333888114357837e-02 4.4811175347267113e-02  1.4856169470284007e-03 7.5563287532971705e-03 4.6410046082327374e-03  0.0000000000000000e+00 0.0000000000000000e+00 0.0000000000000000e+00  4.2523158725782505e-03 1.4379381612324405e-02 9.1499759955178377e-03  8.0235443949677986e-03 2.0744316938622248e-02 1.3635306902338502e-02  1.2997576780725542e-02 2.6900733814424930e-02 2.0829847861767406e-02  1.2586710757838800e-02 2.6740144316222420e-02 1.8131548794166799e-02  1.8399527855546178e-02 3.2615182249011700e-02 2.5698408647469740e-02  1.7819947472646581e-02 3.2464618324995392e-02 2.2646336616103737e-02  2.3343573452389937e-02 3.7714990902700550e-02 2.7153422731129025e-02  2.8964421468153125e-02 4.2563902398203610e-02 3.1634780311066875e-02  3.4571116561014664e-02 4.7116610312937464e-02 3.6078515680660624e-02  4.0092214119694165e-02 5.1467715871089129e-02 4.0474118515247709e-02  4.5490564988384594e-02 5.5688989669015400e-02 4.4824559761166956e-02  1.4155879378992384e-03 6.4418861151810591e-03 4.6327872855751835e-03  0.0000000000000000e+00 0.0000000000000000e+00 0.0000000000000000e+00  4.1209345055074793e-03 1.2492704258982671e-02 1.0788700424287562e-02  3.9956526496133923e-03 1.2403083556009548e-02 9.1429842212712737e-03  7.5017297389696723e-03 1.8073952316687437e-02 1.3630623574204756e-02  1.6548969615599023e-02 2.8759659759842428e-02 2.2630810728099575e-02  1.1743078928583046e-02 2.3517880296223904e-02 1.8125903528546698e-02  2.1787994406945892e-02 3.3831482048150820e-02 2.7137368643331848e-02  1.4030170930890257e-03 5.5077889356863492e-03 5.5239139109520717e-03  1.3660071394276815e-03 5.4707134527633159e-03 4.6167292007226633e-03  0.0000000000000000e+00 0.0000000000000000e+00 0.0000000000000000e+00  0.0000000000000000e+00 0.0000000000000000e+00 0.0000000000000000e+00  3.8221263641978805e-03 1.0665655401513563e-02 9.1230259723130980e-03  7.1538403940027044e-03 1.5716274167142816e-02 1.3612164087657870e-02  1.3659987032546019e-03 4.6004188101591076e-03 5.4868435166887239e-03  1.3290776845756923e-03 4.5800083288012007e-03 4.5963098410744963e-03  0.0000000000000000e+00 0.0000000000000000e+00 0.0000000000000000e+00  0.0000000000000000e+00 0.0000000000000000e+00 0.0000000000000000e+00  3.7012691093503080e-03 9.0644006417783512e-03 9.0950582301680891e-03  1.2993702266638533e-03 3.7231224709880352e-03 4.5720435313122074e-03  0.0000000000000000e+00 0.0000000000000000e+00 0.0000000000000000e+00  0.0000000000000000e+00 0.0000000000000000e+00 0.0000000000000000e+00  3.6130758458810010e-03 7.5248875404149420e-03 9.0596961598693980e-03  1.2726035898906517e-03 2.8641990089322117e-03 4.5432823823468617e-03  0.0000000000000000e+00 0.0000000000000000e+00 0.0000000000000000e+00  2.0556057234211280e-03 1.2779552467643810e-02 3.5021754470976434e-03  6.3460298035883881e-03 2.0505280906023004e-02 3.2526652516897915e-03  0.0000000000000000e+00 0.0000000000000000e+00 0.0000000000000000e+00  0.0000000000000000e+00 0.0000000000000000e+00 0.0000000000000000e+00  7.8875249126748054e-03 2.5056727460839062e-02 7.3063477784744858e-03  1.2796613384949395e-02 3.2109087188146153e-02 6.9699531927978706e-03  1.4016864282615824e-02 3.3786242037860105e-02 1.1257282002590838e-02  1.9019590168477665e-02 3.9941968627206295e-02 1.0894687121139423e-02  2.0097466079143339e-02 4.0447617614119143e-02 1.5335909995233373e-02  2.5017320638070766e-02 4.5854693377002688e-02 1.4968573857543351e-02  2.6042697171581503e-02 4.5872747692590678e-02 1.9521075981537839e-02  3.0823792281047625e-02 5.0695390499741227e-02 1.9165910369442016e-02  3.1825009670228728e-02 5.0545584252590495e-02 2.3789758090490890e-02  3.6461044232418596e-02 5.4916099472906529e-02 2.3462893820963542e-02  3.7432702175191741e-02 5.4764243062107282e-02 2.8119782630251448e-02  4.1937507651548148e-02 5.8782273715311764e-02 2.7835560057729032e-02  4.2859391159304205e-02 5.8719799148015762e-02 3.2491791496568223e-02  4.7252537350520131e-02 6.2458852366987852e-02 3.2262107520910119e-02  1.7305757275988718e-03 1.0438886606004175e-02 3.6776233880750557e-03  0.0000000000000000e+00 0.0000000000000000e+00 0.0000000000000000e+00  5.2186860932386296e-03 1.9455837467156633e-02 7.4365665928943321e-03  1.0603574081222625e-02 2.8143370024715050e-02 1.1394246654899213e-02  1.6377820666164253e-02 3.5163535582161717e-02 1.5481657320903572e-02  2.2217450186606990e-02 4.0998493604349671e-02 1.9669732954713810e-02  2.7995086360372130e-02 4.6048865971664438e-02 2.3932748162190338e-02  3.3651273047910546e-02 5.0594972178988479e-02 2.8247782887297661e-02  3.9156053084939454e-02 5.4828479994626075e-02 3.2595733324033219e-02  4.4494950364552643e-02 5.8879408033079353e-02 3.6962057350101094e-02  1.5625707869638163e-03 8.7579027497752329e-03 3.7379203238599242e-03  0.0000000000000000e+00 0.0000000000000000e+00 0.0000000000000000e+00  4.5572252490722418e-03 1.6500444438489387e-02 7.5248969250136027e-03  8.6634272696460811e-03 2.3627254800355390e-02 1.1445658090650844e-02  1.3837770477959817e-02 3.0432513308975982e-02 1.5524564653657548e-02  1.9368673537684181e-02 3.6380444739188902e-02 1.9712306652623576e-02  2.5002824402882665e-02 4.1644355203004031e-02 2.3975674415041663e-02  3.0616537565099917e-02 4.6424628648146823e-02 2.8287959745180776e-02  3.6144455653820920e-02 5.0882261612837848e-02 3.2628213690260234e-02  4.1551920317406468e-02 5.5135632250975813e-02 3.6981217119200958e-02  4.6821167507704292e-02 5.9268141038735747e-02 4.1336516275709147e-02  1.4576078254733814e-03 7.4473433544710206e-03 3.7518231481094341e-03  0.0000000000000000e+00 0.0000000000000000e+00 0.0000000000000000e+00  4.1628154573746896e-03 1.4196974445398016e-02 7.5531116064578704e-03  7.8450294838998159e-03 2.0518664208705233e-02 1.1477354282998606e-02  1.2296554249791905e-02 2.6496031163480704e-02 1.5535410530163298e-02  1.7401992815044936e-02 3.2222419685194396e-02 1.9715062268184386e-02  2.2792710778270303e-02 3.7492757925819471e-02 2.3976399949331397e-02  2.8285778924507503e-02 4.2375119649451246e-02 2.8288514193127903e-02  3.3778675856451258e-02 4.6970616631168680e-02 3.2627667382733594e-02  3.9213057766528142e-02 5.1368969647055208e-02 3.6977012903287004e-02  4.4555095548656512e-02 5.5639923764460787e-02 4.1324871146159486e-02  1.3868398651800513e-03 6.3648584182097543e-03 3.7493939910537943e-03  0.0000000000000000e+00 0.0000000000000000e+00 0.0000000000000000e+00  3.9066761465339538e-03 1.2276262947632762e-02 7.5570342749209174e-03  7.3262238224001087e-03 1.7919042444442417e-02 1.1486552804268416e-02  1.1459044188219084e-02 2.3351629788232180e-02 1.5544365788045422e-02  1.6140538851430342e-02 2.8595016811256965e-02 1.9713481944316821e-02  2.1247209963200397e-02 3.3678941118244668e-02 2.3969625402202429e-02  2.7239988352007985e-02 3.8656105543250337e-02 3.1624720103063726e-02  2.6569274467446374e-02 3.8525046054961432e-02 2.8280088695899517e-02  3.2767889034023383e-02 4.3262401975276185e-02 3.6078532151365736e-02  3.1978709848557607e-02 4.3160341112321289e-02 3.2619160033743426e-02  3.8277074637928662e-02 4.7702840694609894e-02 4.0483827172624019e-02  3.7397000838817751e-02 4.7634079873804205e-02 3.6968395555335890e-02  4.3713887775326768e-02 5.2026813765111951e-02 4.4842308554795068e-02  4.2774582503674538e-02 5.1994009217723895e-02 4.1314384028059876e-02  1.3367624927463919e-03 5.4214999952036155e-03 3.7435544967036978e-03  0.0000000000000000e+00 0.0000000000000000e+00 0.0000000000000000e+00  3.7337558249706678e-03 1.0587068380966064e-02 7.5551681278432942e-03  6.9809741943473265e-03 1.5622613374602464e-02 1.1490588708668660e-02  1.1185543302632524e-02 2.0664660264015661e-02 1.8109732950009182e-02  1.0906522048507507e-02 2.0565851671598429e-02 1.5551835408558264e-02  1.5761072043915011e-02 2.5523461422436663e-02 2.2616068977682924e-02  1.5359879292430732e-02 2.5426550031166506e-02 1.9720622655611128e-02  2.0740229411665749e-02 3.0293852592981212e-02 2.7121065713699932e-02  2.0208400641862981e-02 3.0204238856671527e-02 2.3971405459234943e-02  2.6006943665043188e-02 3.4980297808014101e-02 3.1612351904707417e-02  2.5344881351200908e-02 3.4902700285105837e-02 2.8278607911178654e-02  3.0640103253390855e-02 3.9488071032291801e-02 3.2616417958102044e-02  3.6005910957494780e-02 4.3968357554799817e-02 3.6965741960539401e-02  4.1381638993730374e-02 4.8365475901980273e-02 4.1311587312641708e-02  4.6730933487824061e-02 5.2702204855172137e-02 4.5649560480867157e-02  1.2993839233844124e-03 4.5557436788886720e-03 3.7395363969850025e-03  0.0000000000000000e+00 0.0000000000000000e+00 0.0000000000000000e+00  3.6131253780580875e-03 9.0290476866268943e-03 7.5557605942901509e-03  6.9148489101628118e-03 1.3540373380037352e-02 1.3583667544403771e-02  6.7435347339218901e-03 1.3501567612584309e-02 1.1497948029183077e-02  1.0526834257710851e-02 1.7990793802154528e-02 1.5564320413952394e-02  1.4821482145026892e-02 2.2492911397332130e-02 1.9735198116801127e-02  1.9505404432067566e-02 2.6996544190618040e-02 2.3985191157307850e-02  2.4474500535221665e-02 3.1488548880921771e-02 2.8288881352563841e-02  2.9644154417962375e-02 3.5959554589139381e-02 3.2624133255351441e-02  1.2691427223019819e-03 3.7225820451916611e-03 3.7389837020794596e-03  0.0000000000000000e+00 0.0000000000000000e+00 0.0000000000000000e+00  3.5244239293551367e-03 7.5306555433083391e-03 7.5615025748052107e-03  6.7434425533289457e-03 1.1454368386327794e-02 1.3544841666353554e-02  6.5720502822341747e-03 1.1467684920142624e-02 1.1511225502300713e-02  1.0251453087111792e-02 1.5528654957371482e-02 1.5583276580479984e-02  1.2415347123479086e-03 2.8880525302823023e-03 3.7417724468101015e-03  0.0000000000000000e+00 0.0000000000000000e+00 0.0000000000000000e+00  3.4523258165721849e-03 6.0395340617947343e-03 7.5720156518030105e-03  6.4357814143009839e-03 9.4584078716172752e-03 1.1529317496373282e-02  1.0030947667