<?xml version="1.0"?>
<VTKFile type="UnstructuredGrid"  version="0.1"  >
<UnstructuredGrid>
<Piece  NumberOfPoints="900" NumberOfCells="3600">
<Points>
<DataArray  type="Float64"  NumberOfComponents="3"  format="ascii">0 0 0  0.04166666666666666 0 0  0.08333333333333333 0 0  0.125 0 0  0.1666666666666667 0 0  0.2083333333333333 0 0  0.25 0 0  0.2916666666666667 0 0  0.3333333333333333 0 0  0.375 0 0  0.4166666666666667 0 0  0.4583333333333333 0 0  0.5 0 0  0.5416666666666666 0 0  0.5833333333333334 0 0  0.625 0 0  0.6666666666666666 0 0  0.7083333333333334 0 0  0.75 0 0  0.7916666666666666 0 0  0.8333333333333334 0 0  0.875 0 0  0.9166666666666666 0 0  0.9583333333333334 0 0  1 0 0  0 0.2 0  0.04166666666666666 0.2 0  0.08333333333333333 0.2 0  0.125 0.2 0  0.1666666666666667 0.2 0  0.2083333333333333 0.2 0  0.25 0.2 0  0.2916666666666667 0.2 0  0.3333333333333333 0.2 0  0.375 0.2 0  0.4166666666666667 0.2 0  0.4583333333333333 0.2 0  0.5 0.2 0  0.5416666666666666 0.2 0  0.5833333333333334 0.2 0  0.625 0.2 0  0.6666666666666666 0.2 0  0.7083333333333334 0.2 0  0.75 0.2 0  0.7916666666666666 0.2 0  0.8333333333333334 0.2 0  0.875 0.2 0  0.9166666666666666 0.2 0  0.9583333333333334 0.2 0  1 0.2 0  0 0.4 0  0.04166666666666666 0.4 0  0.08333333333333333 0.4 0  0.125 0.4 0  0.1666666666666667 0.4 0  0.2083333333333333 0.4 0  0.25 0.4 0  0.2916666666666667 0.4 0  0.3333333333333333 0.4 0  0.375 0.4 0  0.4166666666666667 0.4 0  0.4583333333333333 0.4 0  0.5 0.4 0  0.5416666666666666 0.4 0  0.5833333333333334 0.4 0  0.625 0.4 0  0.6666666666666666 0.4 0  0.7083333333333334 0.4 0  0.75 0.4 0  0.7916666666666666 0.4 0  0.8333333333333334 0.4 0  0.875 0.4 0  0.9166666666666666 0.4 0  0.9583333333333334 0.4 0  1 0.4 0  0 0.6 0  0.04166666666666666 0.6 0  0.08333333333333333 0.6 0  0.125 0.6 0  0.1666666666666667 0.6 0  0.2083333333333333 0.6 0  0.25 0.6 0  0.2916666666666667 0.6 0  0.3333333333333333 0.6 0  0.375 0.6 0  0.4166666666666667 0.6 0  0.4583333333333333 0.6 0  0.5 0.6 0  0.5416666666666666 0.6 0  0.5833333333333334 0.6 0  0.625 0.6 0  0.6666666666666666 0.6 0  0.7083333333333334 0.6 0  0.75 0.6 0  0.7916666666666666 0.6 0  0.8333333333333334 0.6 0  0.875 0.6 0  0.9166666666666666 0.6 0  0.9583333333333334 0.6 0  1 0.6 0  0 0.8 0  0.04166666666666666 0.8 0  0.08333333333333333 0.8 0  0.125 0.8 0  0.1666666666666667 0.8 0  0.2083333333333333 0.8 0  0.25 0.8 0  0.2916666666666667 0.8 0  0.3333333333333333 0.8 0  0.375 0.8 0  0.4166666666666667 0.8 0  0.4583333333333333 0.8 0  0.5 0.8 0  0.5416666666666666 0.8 0  0.5833333333333334 0.8 0  0.625 0.8 0  0.6666666666666666 0.8 0  0.7083333333333334 0.8 0  0.75 0.8 0  0.7916666666666666 0.8 0  0.8333333333333334 0.8 0  0.875 0.8 0  0.9166666666666666 0.8 0  0.9583333333333334 0.8 0  1 0.8 0  0 1 0  0.04166666666666666 1 0  0.08333333333333333 1 0  0.125 1 0  0.1666666666666667 1 0  0.2083333333333333 1 0  0.25 1 0  0.2916666666666667 1 0  0.3333333333333333 1 0  0.375 1 0  0.4166666666666667 1 0  0.4583333333333333 1 0  0.5 1 0  0.5416666666666666 1 0  0.5833333333333334 1 0  0.625 1 0  0.6666666666666666 1 0  0.7083333333333334 1 0  0.75 1 0  0.7916666666666666 1 0  0.8333333333333334 1 0  0.875 1 0  0.9166666666666666 1 0  0.9583333333333334 1 0  1 1 0  0 0 0.2  0.04166666666666666 0 0.2  0.08333333333333333 0 0.2  0.125 0 0.2  0.1666666666666667 0 0.2  0.2083333333333333 0 0.2  0.25 0 0.2  0.2916666666666667 0 0.2  0.3333333333333333 0 0.2  0.375 0 0.2  0.4166666666666667 0 0.2  0.4583333333333333 0 0.2  0.5 0 0.2  0.5416666666666666 0 0.2  0.5833333333333334 0 0.2  0.625 0 0.2  0.6666666666666666 0 0.2  0.7083333333333334 0 0.2  0.75 0 0.2  0.7916666666666666 0 0.2  0.8333333333333334 0 0.2  0.875 0 0.2  0.9166666666666666 0 0.2  0.9583333333333334 0 0.2  1 0 0.2  0 0.2 0.2  0.04166666666666666 0.2 0.2  0.08333333333333333 0.2 0.2  0.125 0.2 0.2  0.1666666666666667 0.2 0.2  0.2083333333333333 0.2 0.2  0.25 0.2 0.2  0.2916666666666667 0.2 0.2  0.3333333333333333 0.2 0.2  0.375 0.2 0.2  0.4166666666666667 0.2 0.2  0.4583333333333333 0.2 0.2  0.5 0.2 0.2  0.5416666666666666 0.2 0.2  0.5833333333333334 0.2 0.2  0.625 0.2 0.2  0.6666666666666666 0.2 0.2  0.7083333333333334 0.2 0.2  0.75 0.2 0.2  0.7916666666666666 0.2 0.2  0.8333333333333334 0.2 0.2  0.875 0.2 0.2  0.9166666666666666 0.2 0.2  0.9583333333333334 0.2 0.2  1 0.2 0.2  0 0.4 0.2  0.04166666666666666 0.4 0.2  0.08333333333333333 0.4 0.2  0.125 0.4 0.2  0.1666666666666667 0.4 0.2  0.2083333333333333 0.4 0.2  0.25 0.4 0.2  0.2916666666666667 0.4 0.2  0.3333333333333333 0.4 0.2  0.375 0.4 0.2  0.4166666666666667 0.4 0.2  0.4583333333333333 0.4 0.2  0.5 0.4 0.2  0.5416666666666666 0.4 0.2  0.5833333333333334 0.4 0.2  0.625 0.4 0.2  0.6666666666666666 0.4 0.2  0.7083333333333334 0.4 0.2  0.75 0.4 0.2  0.7916666666666666 0.4 0.2  0.8333333333333334 0.4 0.2  0.875 0.4 0.2  0.9166666666666666 0.4 0.2  0.9583333333333334 0.4 0.2  1 0.4 0.2  0 0.6 0.2  0.04166666666666666 0.6 0.2  0.08333333333333333 0.6 0.2  0.125 0.6 0.2  0.1666666666666667 0.6 0.2  0.2083333333333333 0.6 0.2  0.25 0.6 0.2  0.2916666666666667 0.6 0.2  0.3333333333333333 0.6 0.2  0.375 0.6 0.2  0.4166666666666667 0.6 0.2  0.4583333333333333 0.6 0.2  0.5 0.6 0.2  0.5416666666666666 0.6 0.2  0.5833333333333334 0.6 0.2  0.625 0.6 0.2  0.6666666666666666 0.6 0.2  0.7083333333333334 0.6 0.2  0.75 0.6 0.2  0.7916666666666666 0.6 0.2  0.8333333333333334 0.6 0.2  0.875 0.6 0.2  0.9166666666666666 0.6 0.2  0.9583333333333334 0.6 0.2  1 0.6 0.2  0 0.8 0.2  0.04166666666666666 0.8 0.2  0.08333333333333333 0.8 0.2  0.125 0.8 0.2  0.1666666666666667 0.8 0.2  0.2083333333333333 0.8 0.2  0.25 0.8 0.2  0.2916666666666667 0.8 0.2  0.3333333333333333 0.8 0.2  0.375 0.8 0.2  0.4166666666666667 0.8 0.2  0.4583333333333333 0.8 0.2  0.5 0.8 0.2  0.5416666666666666 0.8 0.2  0.5833333333333334 0.8 0.2  0.625 0.8 0.2  0.6666666666666666 0.8 0.2  0.7083333333333334 0.8 0.2  0.75 0.8 0.2  0.7916666666666666 0.8 0.2  0.8333333333333334 0.8 0.2  0.875 0.8 0.2  0.9166666666666666 0.8 0.2  0.9583333333333334 0.8 0.2  1 0.8 0.2  0 1 0.2  0.04166666666666666 1 0.2  0.08333333333333333 1 0.2  0.125 1 0.2  0.1666666666666667 1 0.2  0.2083333333333333 1 0.2  0.25 1 0.2  0.2916666666666667 1 0.2  0.3333333333333333 1 0.2  0.375 1 0.2  0.4166666666666667 1 0.2  0.4583333333333333 1 0.2  0.5 1 0.2  0.5416666666666666 1 0.2  0.5833333333333334 1 0.2  0.625 1 0.2  0.6666666666666666 1 0.2  0.7083333333333334 1 0.2  0.75 1 0.2  0.7916666666666666 1 0.2  0.8333333333333334 1 0.2  0.875 1 0.2  0.9166666666666666 1 0.2  0.9583333333333334 1 0.2  1 1 0.2  0 0 0.4  0.04166666666666666 0 0.4  0.08333333333333333 0 0.4  0.125 0 0.4  0.1666666666666667 0 0.4  0.2083333333333333 0 0.4  0.25 0 0.4  0.2916666666666667 0 0.4  0.3333333333333333 0 0.4  0.375 0 0.4  0.4166666666666667 0 0.4  0.4583333333333333 0 0.4  0.5 0 0.4  0.5416666666666666 0 0.4  0.5833333333333334 0 0.4  0.625 0 0.4  0.6666666666666666 0 0.4  0.7083333333333334 0 0.4  0.75 0 0.4  0.7916666666666666 0 0.4  0.8333333333333334 0 0.4  0.875 0 0.4  0.9166666666666666 0 0.4  0.9583333333333334 0 0.4  1 0 0.4  0 0.2 0.4  0.04166666666666666 0.2 0.4  0.08333333333333333 0.2 0.4  0.125 0.2 0.4  0.1666666666666667 0.2 0.4  0.2083333333333333 0.2 0.4  0.25 0.2 0.4  0.2916666666666667 0.2 0.4  0.3333333333333333 0.2 0.4  0.375 0.2 0.4  0.4166666666666667 0.2 0.4  0.4583333333333333 0.2 0.4  0.5 0.2 0.4  0.5416666666666666 0.2 0.4  0.5833333333333334 0.2 0.4  0.625 0.2 0.4  0.6666666666666666 0.2 0.4  0.7083333333333334 0.2 0.4  0.75 0.2 0.4  0.7916666666666666 0.2 0.4  0.8333333333333334 0.2 0.4  0.875 0.2 0.4  0.9166666666666666 0.2 0.4  0.9583333333333334 0.2 0.4  1 0.2 0.4  0 0.4 0.4  0.04166666666666666 0.4 0.4  0.08333333333333333 0.4 0.4  0.125 0.4 0.4  0.1666666666666667 0.4 0.4  0.2083333333333333 0.4 0.4  0.25 0.4 0.4  0.2916666666666667 0.4 0.4  0.3333333333333333 0.4 0.4  0.375 0.4 0.4  0.4166666666666667 0.4 0.4  0.4583333333333333 0.4 0.4  0.5 0.4 0.4  0.5416666666666666 0.4 0.4  0.5833333333333334 0.4 0.4  0.625 0.4 0.4  0.6666666666666666 0.4 0.4  0.7083333333333334 0.4 0.4  0.75 0.4 0.4  0.7916666666666666 0.4 0.4  0.8333333333333334 0.4 0.4  0.875 0.4 0.4  0.9166666666666666 0.4 0.4  0.9583333333333334 0.4 0.4  1 0.4 0.4  0 0.6 0.4  0.04166666666666666 0.6 0.4  0.08333333333333333 0.6 0.4  0.125 0.6 0.4  0.1666666666666667 0.6 0.4  0.2083333333333333 0.6 0.4  0.25 0.6 0.4  0.2916666666666667 0.6 0.4  0.3333333333333333 0.6 0.4  0.375 0.6 0.4  0.4166666666666667 0.6 0.4  0.4583333333333333 0.6 0.4  0.5 0.6 0.4  0.5416666666666666 0.6 0.4  0.5833333333333334 0.6 0.4  0.625 0.6 0.4  0.6666666666666666 0.6 0.4  0.7083333333333334 0.6 0.4  0.75 0.6 0.4  0.7916666666666666 0.6 0.4  0.8333333333333334 0.6 0.4  0.875 0.6 0.4  0.9166666666666666 0.6 0.4  0.9583333333333334 0.6 0.4  1 0.6 0.4  0 0.8 0.4  0.04166666666666666 0.8 0.4  0.08333333333333333 0.8 0.4  0.125 0.8 0.4  0.1666666666666667 0.8 0.4  0.2083333333333333 0.8 0.4  0.25 0.8 0.4  0.2916666666666667 0.8 0.4  0.3333333333333333 0.8 0.4  0.375 0.8 0.4  0.4166666666666667 0.8 0.4  0.4583333333333333 0.8 0.4  0.5 0.8 0.4  0.5416666666666666 0.8 0.4  0.5833333333333334 0.8 0.4  0.625 0.8 0.4  0.6666666666666666 0.8 0.4  0.7083333333333334 0.8 0.4  0.75 0.8 0.4  0.7916666666666666 0.8 0.4  0.8333333333333334 0.8 0.4  0.875 0.8 0.4  0.9166666666666666 0.8 0.4  0.9583333333333334 0.8 0.4  1 0.8 0.4  0 1 0.4  0.04166666666666666 1 0.4  0.08333333333333333 1 0.4  0.125 1 0.4  0.1666666666666667 1 0.4  0.2083333333333333 1 0.4  0.25 1 0.4  0.2916666666666667 1 0.4  0.3333333333333333 1 0.4  0.375 1 0.4  0.4166666666666667 1 0.4  0.4583333333333333 1 0.4  0.5 1 0.4  0.5416666666666666 1 0.4  0.5833333333333334 1 0.4  0.625 1 0.4  0.6666666666666666 1 0.4  0.7083333333333334 1 0.4  0.75 1 0.4  0.7916666666666666 1 0.4  0.8333333333333334 1 0.4  0.875 1 0.4  0.9166666666666666 1 0.4  0.9583333333333334 1 0.4  1 1 0.4  0 0 0.6  0.04166666666666666 0 0.6  0.08333333333333333 0 0.6  0.12
[...]
<PointData  Vectors="f_19"> 
<DataArray  type="Float64"  Name="f_19"  NumberOfComponents="3" format="ascii">1.0000000000000001e-01 0.0000000000000000e+00 0.0000000000000000e+00  9.5860582535536712e-02 1.0466268583950206e-04 -2.1685516718571198e-02  9.0428013886583128e-02 4.6962606375083081e-03 -4.3212876156528537e-02  8.4423039320205284e-02 1.1895255607784387e-02 -6.2677634494101242e-02  7.8463707162695059e-02 2.0855307997987804e-02 -7.9773391596335716e-02  7.2735006716499961e-02 3.0881827335373622e-02 -9.3306536223079661e-02  6.7119553164451506e-02 4.1484625211104645e-02 -1.0386035879054162e-01  6.1664343345430916e-02 5.2501259711567702e-02 -1.1284063355594076e-01  5.6475980113949983e-02 6.3237752282239990e-02 -1.2047245225530011e-01  5.1373070319556034e-02 7.4520306175430290e-02 -1.2778480493688057e-01  4.6325474686898439e-02 8.6314360532614737e-02 -1.3482719954018915e-01  4.1293204396338476e-02 9.7657415971779502e-02 -1.4112051373677834e-01  3.6238401997641043e-02 1.0894687213199349e-01 -1.4719206586033987e-01  3.1089343166512684e-02 1.2122760126605554e-01 -1.5349223564262438e-01  2.5679467359524213e-02 1.3610156744210339e-01 -1.5989199497164827e-01  2.0078405797010569e-02 1.5325497199118393e-01 -1.6532908525108647e-01  1.4610832832873089e-02 1.7114658761277796e-01 -1.6919336326188952e-01  9.4312207008486176e-03 1.9043836425245955e-01 -1.7133963117578185e-01  4.7294064816071494e-03 2.1089600014523344e-01 -1.7128301925157463e-01  6.9222931993582018e-04 2.3083934019496136e-01 -1.6888524815628644e-01  -2.6846665224499809e-03 2.4896030875325006e-01 -1.6451415824490315e-01  -5.4054052176114534e-03 2.6578743972632474e-01 -1.5840184793124157e-01  -7.1496343885479267e-03 2.8410654380934103e-01 -1.4900249548905650e-01  -6.7662143205966330e-03 3.0676449889206886e-01 -1.3220207002396692e-01  0.0000000000000000e+00 3.4150635094610959e-01 -9.1506350946109677e-02  1.0000000000000001e-01 0.0000000000000000e+00 0.0000000000000000e+00  9.4458689452882549e-02 5.8648214463634350e-03 -2.1085357878446228e-02  8.7782896448395278e-02 1.3782565215161349e-02 -3.7818142978777176e-02  8.0743450066436212e-02 2.2825889246673656e-02 -5.1148212648484459e-02  7.3805433770301382e-02 3.1571807362755409e-02 -6.1445204047968986e-02  6.6925552249979203e-02 4.0532579509248420e-02 -7.0565379082142873e-02  6.0107704797246697e-02 5.0327489270590164e-02 -7.7996629098686446e-02  5.3471653101358145e-02 6.0666426206992176e-02 -8.3249787857232208e-02  4.7111442511344921e-02 7.0994505707522262e-02 -8.7218347845848088e-02  4.1065267913684853e-02 8.1391173456297108e-02 -9.0547793341698976e-02  3.5365505285521612e-02 9.1578638409152993e-02 -9.3288839504767559e-02  2.9832557511107360e-02 1.0199450835013359e-01 -9.5657953582626187e-02  2.4447363086553618e-02 1.1228722507053648e-01 -9.7815856440938903e-02  1.9125332806383573e-02 1.2259299799508869e-01 -1.0002306258080416e-01  1.3506971738622715e-02 1.3503362511873862e-01 -1.0252902412650139e-01  7.6903815290774386e-03 1.5094388988815499e-01 -1.0460100581829319e-01  2.2318733103639742e-03 1.6738559929655578e-01 -1.0502066019226776e-01  -2.6124336340795609e-03 1.8362678743896688e-01 -1.0349271037016353e-01  -6.6385209907216889e-03 2.0018659727071073e-01 -9.9604062607023314e-02  -9.6079040548046266e-03 2.1709769483312519e-01 -9.2872457061382738e-02  -1.1424788280087443e-02 2.3313278325105491e-01 -8.3737221770243730e-02  -1.2155737742790634e-02 2.4675522408916695e-01 -7.3660090418261645e-02  -1.1552872527177769e-02 2.5941398074820560e-01 -6.1313857298083800e-02  -8.4980332139388687e-03 2.7329942861379075e-01 -4.1874725716085845e-02  0.0000000000000000e+00 2.9150635094610966e-01 -4.9038105676658117e-03  1.0000000000000001e-01 0.0000000000000000e+00 0.0000000000000000e+00  9.5536917194707222e-02 1.1404675107504821e-02 -1.6902327510025069e-02  9.0064180079710662e-02 2.3752612672444030e-02 -2.9691848819632702e-02  8.4305034219234548e-02 3.5997550413795751e-02 -3.8154038318338558e-02  7.8667508080413645e-02 4.5644034373451263e-02 -4.2489580063596578e-02  7.3106555088361752e-02 5.3516379569513960e-02 -4.5384605308832364e-02  6.7277788980341979e-02 6.1753489010199732e-02 -4.8206384889635918e-02  6.1071790418264722e-02 7.1572321957819388e-02 -5.0811774721119404e-02  5.4676180132998901e-02 8.1985140108994881e-02 -5.2328997414779060e-02  4.8285042690029402e-02 9.1538870865102900e-02 -5.2755853192840679e-02  4.1978889456336231e-02 1.0020013164088259e-01 -5.2462275432757124e-02  3.5681172382388840e-02 1.0966227263558403e-01 -5.1493019575175727e-02  2.9446200623873174e-02 1.1964752770494162e-01 -4.9749057192577446e-02  2.3327159611296628e-02 1.2972929000304331e-01 -4.7776300070521603e-02  1.7271720982390614e-02 1.4180698554685389e-01 -4.5586507968332732e-02  1.1363215793800487e-02 1.5536153864543958e-01 -4.2823491515979084e-02  5.8128592510252501e-03 1.6788534994712567e-01 -3.9494355642844876e-02  7.5903650836288135e-04 1.7996158353369857e-01 -3.5039781430973804e-02  -3.6472278697373167e-03 1.9191791197053462e-01 -2.8581404710431645e-02  -7.1097214587773601e-03 2.0379116923728935e-01 -1.8856397709729709e-02  -9.3104023284027899e-03 2.1493322176022017e-01 -5.0707971689210015e-03  -1.0093879913320291e-02 2.2395161036602831e-01 1.1144099299988502e-02  -9.3279156303090922e-03 2.3110297063341731e-01 2.9104503214364540e-02  -6.5183937576031407e-03 2.3697282182578230e-01 5.1192918496792118e-02  0.0000000000000000e+00 2.4150635094610967e-01 8.1698729810778054e-02  1.0000000000000001e-01 0.0000000000000000e+00 0.0000000000000000e+00  9.6766999941553467e-02 1.5782735402680114e-02 -9.8405850807973920e-03  9.2973315453661914e-02 2.9771221506162220e-02 -1.5388589466093327e-02  8.9038282716203107e-02 4.2292272205002646e-02 -1.8311529499298339e-02  8.5048077884815665e-02 5.3441828726262866e-02 -1.9149868661799536e-02  8.0928412335941516e-02 6.2448346658251608e-02 -1.8792281928287587e-02  7.6482903364453944e-02 7.1610531278419959e-02 -1.8044454054764091e-02  7.1595376297361138e-02 8.2282283490074132e-02 -1.6691936382477245e-02  6.6395074626145703e-02 9.3062236340186635e-02 -1.4389145275005811e-02  6.0973354599454681e-02 1.0247895025191539e-01 -1.1512351370689426e-02  5.5233930399261152e-02 1.1139443751133241e-01 -8.1531707519200136e-03  4.9125048044773093e-02 1.2175864683566515e-01 -3.4906106432568101e-03  4.2760426391699136e-02 1.3237687621825323e-01 2.5536886890443087e-03  3.6261186965289578e-02 1.4230715838381006e-01 9.0157366452667045e-03  2.9834256392992680e-02 1.5330620081928781e-01 1.6331825903412155e-02  2.3593971667341052e-02 1.6379437962887533e-01 2.4118640268582847e-02  1.7571556173564241e-02 1.7198531008969906e-01 3.1357499360976974e-02  1.1863084973657860e-02 1.7973364718371357e-01 3.9182377055134505e-02  6.5048454593488701e-03 1.8667573083764502e-01 4.8299978100160144e-02  1.5699043645092279e-03 1.9211615212232494e-01 5.8806303602464839e-02  -2.6250201718505842e-03 1.9650050422908238e-01 7.2341303710722379e-02  -5.6656821267540240e-03 1.9903454400255322e-01 8.8910331360158815e-02  -6.9952798756498808e-03 1.9962080626940229e-01 1.0954140285315110e-01  -5.4527539231987512e-03 1.9823594476122872e-01 1.3666606295813918e-01  0.0000000000000000e+00 1.9150635094610968e-01 1.6830127018922189e-01  1.0000000000000001e-01 0.0000000000000000e+00 0.0000000000000000e+00  9.6978265780232359e-02 1.8304038732811678e-02 -4.6983208398503678e-03  9.3400753804232045e-02 3.4163148519103695e-02 -4.7047934983759018e-03  8.9762629160546947e-02 4.7508909082420780e-02 -2.1857586436141987e-03  8.6077866186735186e-02 5.9347392655317931e-02 1.8484323877879375e-03  8.2334516101019606e-02 6.9938860346875409e-02 6.4652595407458918e-03  7.8378146306813570e-02 8.0715472277169964e-02 1.1699029851632559e-02  7.4093815842641922e-02 9.2253015174739827e-02 1.8373049351005408e-02  6.9556301833361325e-02 1.0267369727141697e-01 2.5591786394377820e-02  6.4883688050475397e-02 1.1207095727622435e-01 3.2848741647153575e-02  5.9975685732388526e-02 1.2175279218157993e-01 4.0706468917229517e-02  5.4744263009785757e-02 1.3236013043524095e-01 4.9790959112490991e-02  4.9271087301752149e-02 1.4231901764688690e-01 5.9471089218006347e-02  4.3655342106128758e-02 1.5158550501213341e-01 6.9647736346890698e-02  3.8012542151644582e-02 1.6163656900328266e-01 8.1880089928530839e-02  3.2465534668804218e-02 1.7049044198869992e-01 9.5361659020589809e-02  2.6997510130488740e-02 1.7592896580192002e-01 1.0681022112534244e-01  2.1656782621036683e-02 1.7980474666164364e-01 1.1704579983381473e-01  1.6368854977974568e-02 1.8275936384175392e-01 1.2754222814850025e-01  1.1086121141913272e-02 1.8473680703175194e-01 1.3952024674307423e-01  5.9782711633609396e-03 1.8527409903418418e-01 1.5572296172066760e-01  1.3060248707281496e-03 1.8185385703741661e-01 1.7493146550797467e-01  -2.7419996479996251e-03 1.7419779036987412e-01 1.9313405815626772e-01  -5.1896002341004577e-03 1.6117742968368534e-01 2.1511384049146029e-01  0.0000000000000000e+00 1.4150635094610964e-01 2.5490381056766576e-01  1.0000000000000001e-01 0.0000000000000000e+00 0.0000000000000000e+00  9.6332857187228102e-02 2.3732700235497402e-02 -2.5666156269648402e-03  9.1967352085299547e-02 4.1793691822616226e-02 2.7243120909373852e-03  8.7522430810899540e-02 5.6044690798513055e-02 1.1288340210465146e-02  8.3031465167075061e-02 6.8164283310185148e-02 2.1467455009470823e-02  7.8563308001696114e-02 7.8604564219843936e-02 3.1176281184923750e-02  7.4156008247323865e-02 8.8915764364543071e-02 4.0091187270620027e-02  6.9749844924478499e-02 1.0068815448155576e-01 5.1287691696323016e-02  6.5154600284004119e-02 1.1065965710719204e-01 6.3620564902525212e-02  6.0451999580554486e-02 1.1919418807145134e-01 7.6014897380876439e-02  5.5683527238485055e-02 1.2820646780447584e-01 8.9122979008261924e-02  5.0863124136028767e-02 1.3800700926332482e-01 1.0315016025796965e-01  4.6100185461788443e-02 1.4695962791629535e-01 1.1698646275571274e-01  4.1421332016061962e-02 1.5470285862421862e-01 1.3006728911976334e-01  3.6872997054168612e-02 1.6232535859608302e-01 1.4356890965343599e-01  3.2691526654312297e-02 1.6960861674163438e-01 1.5987058709031321e-01  2.8767594197352364e-02 1.7419608306896203e-01 1.7676454525942953e-01  2.4859014719450158e-02 1.7635746579163700e-01 1.9104411756507717e-01  2.1000374272852576e-02 1.7756676119191411e-01 2.0506991846638037e-01  1.7141305018706452e-02 1.7789376905731491e-01 2.2043428130155898e-01  1.3422057381131431e-02 1.7639347946506406e-01 2.4106254923895443e-01  1.0105945907634072e-02 1.7000386068456816e-01 2.6802840981102033e-01  6.7366787551815868e-03 1.5800802403704284e-01 2.9081484406130070e-01  3.1502698628315152e-03 1.3806016733359172e-01 3.1229555562324107e-01  0.0000000000000000e+00 9.1506350946109594e-02 3.4150635094610959e-01  1.0000000000000001e-01 0.0000000000000000e+00 0.0000000000000000e+00  9.7904367246245294e-02 -7.2275428961864627e-03 -1.7945776577369239e-02  9.4468947226320710e-02 -9.1904977419723071e-03 -3.6520583928186030e-02  9.0058563426607868e-02 -6.9850518856840529e-03 -5.3773162448145589e-02  8.5023599593639851e-02 -1.7733138445487288e-03 -7.0629622556975385e-02  8.0020661870279106e-02 4.8398209147556895e-03 -8.3897425090398367e-02  7.5067588554735901e-02 1.1386648608711983e-02 -9.3911704440758290e-02  6.9918373017546581e-02 1.8239381162322515e-02 -1.0361080288532182e-01  6.4727521128441892e-02 2.5400323572732721e-02 -1.1286772164769647e-01  5.9596509389410454e-02 3.2967094848286513e-02 -1.2140578632249598e-01  5.4469284970224872e-02 4.1050106430610876e-02 -1.2935625716969551e-01  4.9358027810838638e-02 4.8733341125900505e-02 -1.3642698500474612e-01  4.4066012774587035e-02 5.6518541353554032e-02 -1.4370384389641186e-01  3.8627489092168364e-02 6.4855099000615909e-02 -1.5124169857253697e-01  3.3159703964676025e-02 7.4305929872122645e-02 -1.5879735484634130e-01  2.7581132130887222e-02 8.5804744094213167e-02 -1.6618920818261174e-01  2.1881795070110014e-02 9.9319576943116578e-02 -1.7249529070527853e-01  1.6262556060227109e-02 1.1438071501041144e-01 -1.7735190343945359e-01  1.1044546107540441e-02 1.3031677598292871e-01 -1.8034008742742091e-01  6.4129996016078330e-03 1.4694352893625509e-01 -1.8125166469940265e-01  2.4953117551231906e-03 1.6321185545481118e-01 -1.8000082244647275e-01  -6.4768683619334869e-04 1.7904642868843715e-01 -1.7680154402770140e-01  -2.8875863621617456e-03 1.9675847163435389e-01 -1.7128320162102631e-01  -3.5224838015151809e-03 2.1921113424903610e-01 -1.6185299973802825e-01  0.0000000000000000e+00 2.5490381056766576e-01 -1.4150635094610967e-01  1.0000000000000001e-01 0.0000000000000000e+00 0.0000000000000000e+00  9.8258889490616133e-02 9.9783517371395953e-04 -1.0444325503020975e-02  9.4188370989389231e-02 3.0576442122622997e-03 -2.2412700941740457e-02  8.8575539173576787e-02 6.6626670606399572e-03 -3.4868490941338683e-02  8.2199503219111486e-02 1.1379785609578443e-02 -4.6132952130475906e-02  7.5705318811545935e-02 1.6617877604020496e-02 -5.5829017384552773e-02  6.9299136155340904e-02 2.2140868432314085e-02 -6.3465871428850504e-02  6.2937111848480942e-02 2.7941014103309243e-02 -6.9795738259601073e-02  5.6682553663385843e-02 3.4123819169172773e-02 -7.5496628375683716e-02  5.0610600043203301e-02 4.0870334182986315e-02 -8.0585118155381358e-02  4.4736379060437474e-02 4.8167068513157829e-02 -8.4856905066001589e-02  3.9112033764371099e-02 5.5285218703756411e-02 -8.8159388850348755e-02  3.3514336877611184e-02 6.2659810690047113e-02 -9.1329378901481850e-02  2.7918487814370400e-02 7.0267465598472495e-02 -9.4381511665380668e-02  2.2296096094052996e-02 7.8337481215962651e-02 -9.7277158615892645e-02  1.6477690252430760e-02 8.8068632873348027e-02 -1.0030336358865466e-01  1.0571009659230196e-02 9.9583418380031874e-02 -1.0283575512980399e-01  4.9638034213817118e-03 1.1176438511538306e-01 -1.0402140919629974e-01  1.9541370084671924e-05 1.2399253768952113e-01 -1.0369940457970263e-01  -4.0315747737907394e-03 1.3652635894080700e-01 -1.0177077871891549e-01  -6.9766196052095542e-03 1.4938361360035365e-01 -9.7859604446208504e-02  -8.6071128798953858e-03 1.6183956137357275e-01 -9.2034421120448365e-02  -8.6877797809017891e-03 1.7422326980133859e-01 -8.4295809168089278e-02  -6.4759671037291060e-03 1.8792147892980843e-01 -7.3232946599927268e-02  0.0000000000000000e+00 2.0490381056766580e-01 -5.4903810567665801e-02  1.0000000000000001e-01 0.0000000000000000e+00 0.0000000000000000e+00  9.8193536960478431e-02 5.2206665357148203e-03 -6.4430270201649075e-03  9.4172114111135768e-02 1.0931747288439464e-02 -1.4274514964420179e-02  8.8661723479528498e-02 1.7843018233577094e-02 -2.2276847991219432e-02  8.2475802023404682e-02 2.4580392424440961e-02 -2.8046478927865017e-02  7.6193260964651635e-02 2.9969945480184033e-02 -3.1238900428392741e-02  6.9789675226250888e-02 3.4929553894883933e-02 -3.3214290557035307e-02  6.3184463139478467e-02 4.0210275413007882e-02 -3.5016088272723608e-02  5.6418548718539192e-02 4.5820430076041092e-02 -3.6967050189489044e-02  4.9623848791218499e-02 5.1664246717454690e-02 -3.8649158019350462e-02  4.2951829279164550e-02 5.7625044843995298e-02 -3.9510984722596662e-02  3.6495768591844245e-02 6.3580818589002747e-02 -3.9544549077094773e-02  3.0221823427056756e-02 6.9740154074759669e-02 -3.9391241262017290e-02  2.4139628264171476e-02 7.6002635495595897e-02 -3.9124864794467147e-02  1.8143813882275296e-02 8.2899362073781568e-02 -3.8557768736210300e-02  1.2099536661881420e-02 9.1066032147037082e-02 -3.7540140030822740e-02  6.1822795398897949e-03 9.9739290725791560e-02 -3.5883633086564469e-02  6.8542606809836684e-04 1.0804058879528340e-01 -3.3473820258602134e-02  -4.1865568761101143e-03 1.1596522673806571e-01 -3.0095186465137352e-02  -8.1499799997103006e-03 1.2401665014457212e-01 -2.4866845922603693e-02  -1.0768924989019990e-02 1.3189694813724528e-01 -1.7011075234242102e-02  -1.1681937522685440e-02 1.3871814485533315e-01 -7.2545096958906777e-03  -1.0656977731174411e-02 1.4445740607398549e-01 3.5251445648006364e-03  -7.2118938494716775e-03 1.4966634460524733e-01 1.6183216461817990e-02  0.0000000000000000e+00 1.5490381056766578e-01 3.1698729810778065e-02  1.0000000000000001e-01 0.0000000000000000e+00 0.0000000000000000e+00  9.8501960075119466e-02 7.9548061780521425e-03 -2.4057406530154130e-03  9.5187693989332453e-02 1.6948911503637379e-02 -5.2958484468771765e-03  9.0766979199910350e-02 2.6469935321496760e-02 -7.2021874584632471e-03  8.5784822648683645e-02 3.4855821731026991e-02 -7.7131653726326939e-03  8.0619126172792904e-02 4.0819815630084598e-02 -7.1591053390508558e-03  7.5263942677286422e-02 4.5930965770328930e-02 -5.8291599083757639e-03  6.9507731148688981e-02 5.1574424045889633e-02 -3.8349645848523382e-03  6.3357568128018238e-02 5.7884103640338767e-02 -1.4295607324196057e-03  5.6978949226488704e-02 6.3820906923615237e-02 1.1429197108495672e-03  5.0420603330390737e-02 6.9140227105079388e-02 4.2874029504667097e-03  4.3644036209933561e-02 7.4392351572589499e-02 8.3336017740292898e-03  3.6699363092878717e-02 7.9798332037153155e-02 1.2814833323205594e-02  2.9731078150277684e-02 8.5233590632442319e-02 1.7389159690505914e-02  2.2878028345308037e-02 9.1100474992211536e-02 2.2429653798604572e-02  1.6258942881111516e-02 9.7304025342254394e-02 2.8008170716938414e-02  1.0018261366640852e-02 1.0253030946111752e-01 3.3573200695319889e-02  4.2576570630598626e-03 1.0681881034498304e-01 3.9353823082452791e-02  -9.8210842528207039e-04 1.1067875659297875e-01 4.6260688338137450e-02  -5.4953559103012653e-03 1.1360446694130472e-01 5.4819846947321782e-02  -8.9429154055057913e-03 1.1497382228388639e-01 6.5178692484727865e-02  -1.0859213482153974e-02 1.1448055097116161e-01 7.6726136528385475e-02  -1.0657118429688641e-02 1.1242876192975577e-01 8.9314949400787297e-02  -7.3339956882486589e-03 1.0951524983334082e-01 1.0354076827723080e-01  0.0000000000000000e+00 1.0490381056766579e-01 1.1830127018922190e-01  1.0000000000000001e-01 0.0000000000000000e+00 0.0000000000000000e+00  9.7740204416586346e-02 1.1838485890851040e-02 2.2970895125613319e-03  9.4080746331259735e-02 2.2887253798316479e-02 4.4051144103316566e-03  8.9807629221815136e-02 3.3044213460368420e-02 7.3237829195760534e-03  8.5293349279603595e-02 4.1543193192991969e-02 1.1255217253023765e-02  8.0744064592010847e-02 4.7957425377737874e-02 1.5476699347589976e-02  7.5965186384308089e-02 5.3749778098681873e-02 2.0283654725892046e-02  7.0747628374155866e-02 6.0338338248680581e-02 2.6667253395450428e-02  6.5234707518378454e-02 6.7155186624983126e-02 3.3911370481830724e-02  5.9631634284128592e-02 7.3241386062800590e-02 4.0934617468422599e-02  5.3924333284045063e-02 7.8921324231993953e-02 4.8226903454055919e-02  4.7988919256682638e-02 8.4675515933230305e-02 5.6543241597097026e-02  4.1830982233191441e-02 9.0352471071204393e-02 6.5846139761946629e-02  3.5590298334819283e-02 9.5370782191893877e-02 7.5147190886898488e-02  2.9354924304656634e-02 9.9679407990829083e-02 8.4335698752035254e-02  2.3225398155883949e-02 1.0341525214256472e-01 9.4204981823075531e-02  1.7334433806943102e-02 1.0594743344546534e-01 1.0447906257758496e-01  1.1738819143886565e-02 1.0721352300766691e-01 1.1410325716331503e-01  6.5004461810353525e-03 1.0755459989076101e-01 1.2405713893359367e-01  1.7074011125807382e-03 1.0631353206469502e-01 1.3434788563731367e-01  -2.5294057432651081e-03 1.0278642581132946e-01 1.4556330709636117e-01  -5.8253455553403440e-03 9.5914356876791479e-02 1.5881714949216197e-01  -7.5686724553849852e-03 8.5386279048247846e-02 1.7320947368764336e-01  -6.8103134699789829e-03 7.0461899074790793e-02 1.8865517116388222e-01  0.0000000000000000e+00 5.4903810567665801e-02 2.0490381056766580e-01  1.0000000000000001e-01 0.0000000000000000e+00 0.0000000000000000e+00  9.6799815733924738e-02 1.9639803245122989e-02 7.8446566081884564e-03  9.1676012354073744e-02 3.2565213270423894e-02 1.4771739361562557e-02  8.6156842978068263e-02 4.2720999437618368e-02 2.2325334962294767e-02  8.0676370041322054e-02 5.1167208968897114e-02 3.1588538959359695e-02  7.5370515028740245e-02 5.7201393054040865e-02 4.0313652341571034e-02  7.024034428