<?xml version="1.0"?>
<VTKFile type="UnstructuredGrid"  version="0.1"  >
<UnstructuredGrid>
<Piece  NumberOfPoints="7225" NumberOfCells="36864">
<Points>
<DataArray  type="Float64"  NumberOfComponents="3"  format="ascii">0 0 0  0.04166666666666666 0 0  0.08333333333333333 0 0  0.125 0 0  0.1666666666666667 0 0  0.2083333333333333 0 0  0.25 0 0  0.2916666666666667 0 0  0.3333333333333333 0 0  0.375 0 0  0.4166666666666667 0 0  0.4583333333333333 0 0  0.5 0 0  0.5416666666666666 0 0  0.5833333333333334 0 0  0.625 0 0  0.6666666666666666 0 0  0.7083333333333334 0 0  0.75 0 0  0.7916666666666666 0 0  0.8333333333333334 0 0  0.875 0 0  0.9166666666666666 0 0  0.9583333333333334 0 0  1 0 0  0 0.0625 0  0.04166666666666666 0.0625 0  0.08333333333333333 0.0625 0  0.125 0.0625 0  0.1666666666666667 0.0625 0  0.2083333333333333 0.0625 0  0.25 0.0625 0  0.2916666666666667 0.0625 0  0.3333333333333333 0.0625 0  0.375 0.0625 0  0.4166666666666667 0.0625 0  0.4583333333333333 0.0625 0  0.5 0.0625 0  0.5416666666666666 0.0625 0  0.5833333333333334 0.0625 0  0.625 0.0625 0  0.6666666666666666 0.0625 0  0.7083333333333334 0.0625 0  0.75 0.0625 0  0.7916666666666666 0.0625 0  0.8333333333333334 0.0625 0  0.875 0.0625 0  0.9166666666666666 0.0625 0  0.9583333333333334 0.0625 0  1 0.0625 0  0 0.125 0  0.04166666666666666 0.125 0  0.08333333333333333 0.125 0  0.125 0.125 0  0.1666666666666667 0.125 0  0.2083333333333333 0.125 0  0.25 0.125 0  0.2916666666666667 0.125 0  0.3333333333333333 0.125 0  0.375 0.125 0  0.4166666666666667 0.125 0  0.4583333333333333 0.125 0  0.5 0.125 0  0.5416666666666666 0.125 0  0.5833333333333334 0.125 0  0.625 0.125 0  0.6666666666666666 0.125 0  0.7083333333333334 0.125 0  0.75 0.125 0  0.7916666666666666 0.125 0  0.8333333333333334 0.125 0  0.875 0.125 0  0.9166666666666666 0.125 0  0.9583333333333334 0.125 0  1 0.125 0  0 0.1875 0  0.04166666666666666 0.1875 0  0.08333333333333333 0.1875 0  0.125 0.1875 0  0.1666666666666667 0.1875 0  0.2083333333333333 0.1875 0  0.25 0.1875 0  0.2916666666666667 0.1875 0  0.3333333333333333 0.1875 0  0.375 0.1875 0  0.4166666666666667 0.1875 0  0.4583333333333333 0.1875 0  0.5 0.1875 0  0.5416666666666666 0.1875 0  0.5833333333333334 0.1875 0  0.625 0.1875 0  0.6666666666666666 0.1875 0  0.7083333333333334 0.1875 0  0.75 0.1875 0  0.7916666666666666 0.1875 0  0.8333333333333334 0.1875 0  0.875 0.1875 0  0.9166666666666666 0.1875 0  0.9583333333333334 0.1875 0  1 0.1875 0  0 0.25 0  0.04166666666666666 0.25 0  0.08333333333333333 0.25 0  0.125 0.25 0  0.1666666666666667 0.25 0  0.2083333333333333 0.25 0  0.25 0.25 0  0.2916666666666667 0.25 0  0.3333333333333333 0.25 0  0.375 0.25 0  0.4166666666666667 0.25 0  0.4583333333333333 0.25 0  0.5 0.25 0  0.5416666666666666 0.25 0  0.5833333333333334 0.25 0  0.625 0.25 0  0.6666666666666666 0.25 0  0.7083333333333334 0.25 0  0.75 0.25 0  0.7916666666666666 0.25 0  0.8333333333333334 0.25 0  0.875 0.25 0  0.9166666666666666 0.25 0  0.9583333333333334 0.25 0  1 0.25 0  0 0.3125 0  0.04166666666666666 0.3125 0  0.08333333333333333 0.3125 0  0.125 0.3125 0  0.1666666666666667 0.3125 0  0.2083333333333333 0.3125 0  0.25 0.3125 0  0.2916666666666667 0.3125 0  0.3333333333333333 0.3125 0  0.375 0.3125 0  0.4166666666666667 0.3125 0  0.4583333333333333 0.3125 0  0.5 0.3125 0  0.5416666666666666 0.3125 0  0.5833333333333334 0.3125 0  0.625 0.3125 0  0.6666666666666666 0.3125 0  0.7083333333333334 0.3125 0  0.75 0.3125 0  0.7916666666666666 0.3125 0  0.8333333333333334 0.3125 0  0.875 0.3125 0  0.9166666666666666 0.3125 0  0.9583333333333334 0.3125 0  1 0.3125 0  0 0.375 0  0.04166666666666666 0.375 0  0.08333333333333333 0.375 0  0.125 0.375 0  0.1666666666666667 0.375 0  0.2083333333333333 0.375 0  0.25 0.375 0  0.2916666666666667 0.375 0  0.3333333333333333 0.375 0  0.375 0.375 0  0.4166666666666667 0.375 0  0.4583333333333333 0.375 0  0.5 0.375 0  0.5416666666666666 0.375 0  0.5833333333333334 0.375 0  0.625 0.375 0  0.6666666666666666 0.375 0  0.7083333333333334 0.375 0  0.75 0.375 0  0.7916666666666666 0.375 0  0.8333333333333334 0.375 0  0.875 0.375 0  0.9166666666666666 0.375 0  0.9583333333333334 0.375 0  1 0.375 0  0 0.4375 0  0.04166666666666666 0.4375 0  0.08333333333333333 0.4375 0  0.125 0.4375 0  0.1666666666666667 0.4375 0  0.2083333333333333 0.4375 0  0.25 0.4375 0  0.2916666666666667 0.4375 0  0.3333333333333333 0.4375 0  0.375 0.4375 0  0.4166666666666667 0.4375 0  0.4583333333333333 0.4375 0  0.5 0.4375 0  0.5416666666666666 0.4375 0  0.5833333333333334 0.4375 0  0.625 0.4375 0  0.6666666666666666 0.4375 0  0.7083333333333334 0.4375 0  0.75 0.4375 0  0.7916666666666666 0.4375 0  0.8333333333333334 0.4375 0  0.875 0.4375 0  0.9166666666666666 0.4375 0  0.9583333333333334 0.4375 0  1 0.4375 0  0 0.5 0  0.04166666666666666 0.5 0  0.08333333333333333 0.5 0  0.125 0.5 0  0.1666666666666667 0.5 0  0.2083333333333333 0.5 0  0.25 0.5 0  0.2916666666666667 0.5 0  0.3333333333333333 0.5 0  0.375 0.5 0  0.4166666666666667 0.5 0  0.4583333333333333 0.5 0  0.5 0.5 0  0.5416666666666666 0.5 0  0.5833333333333334 0.5 0  0.625 0.5 0  0.6666666666666666 0.5 0  0.7083333333333334 0.5 0  0.75 0.5 0  0.7916666666666666 0.5 0  0.8333333333333334 0.5 0  0.875 0.5 0  0.9166666666666666 0.5 0  0.9583333333333334 0.5 0  1 0.5 0  0 0.5625 0  0.04166666666666666 0.5625 0  0.08333333333333333 0.5625 0  0.125 0.5625 0  0.1666666666666667 0.5625 0  0.2083333333333333 0.5625 0  0.25 0.5625 0  0.2916666666666667 0.5625 0  0.3333333333333333 0.5625 0  0.375 0.5625 0  0.4166666666666667 0.5625 0  0.4583333333333333 0.5625 0  0.5 0.5625 0  0.5416666666666666 0.5625 0  0.5833333333333334 0.5625 0  0.625 0.5625 0  0.6666666666666666 0.5625 0  0.7083333333333334 0.5625 0  0.75 0.5625 0  0.7916666666666666 0.5625 0  0.8333333333333334 0.5625 0  0.875 0.5625 0  0.9166666666666666 0.5625 0  0.9583333333333334 0.5625 0  1 0.5625 0  0 0.625 0  0.04166666666666666 0.625 0  0.08333333333333333 0.625 0  0.125 0.625 0  0.1666666666666667 0.625 0  0.2083333333333333 0.625 0  0.25 0.625 0  0.2916666666666667 0.625 0  0.3333333333333333 0.625 0  0.375 0.625 0  0.4166666666666667 0.625 0  0.4583333333333333 0.625 0  0.5 0.625 0  0.5416666666666666 0.625 0  0.5833333333333334 0.625 0  0.625 0.625 0  0.6666666666666666 0.625 0  0.7083333333333334 0.625 0  0.75 0.625 0  0.7916666666666666 0.625 0  0.8333333333333334 0.625 0  0.875 0.625 0  0.9166666666666666 0.625 0  0.9583333333333334 0.625 0  1 0.625 0  0 0.6875 0  0.04166666666666666 0.6875 0  0.08333333333333333 0.6875 0  0.125 0.6875 0  0.1666666666666667 0.6875 0  0.2083333333333333 0.6875 0  0.25 0.6875 0  0.2916666666666667 0.6875 0  0.3333333333333333 0.6875 0  0.375 0.6875 0  0.4166666666666667 0.6875 0  0.4583333333333333 0.6875 0  0.5 0.6875 0  0.5416666666666666 0.6875 0  0.5833333333333334 0.6875 0  0.625 0.6875 0  0.6666666666666666 0.6875 0  0.7083333333333334 0.6875 0  0.75 0.6875 0  0.7916666666666666 0.6875 0  0.8333333333333334 0.6875 0  0.875 0.6875 0  0.9166666666666666 0.6875 0  0.9583333333333334 0.6875 0  1 0.6875 0  0 0.75 0  0.04166666666666666 0.75 0  0.08333333333333333 0.75 0  0.125 0.75 0  0.1666666666666667 0.75 0  0.2083333333333333 0.75 0  0.25 0.75 0  0.2916666666666667 0.75 0  0.3333333333333333 0.75 0  0.375 0.75 0  0.4166666666666667 0.75 0  0.4583333333333333 0.75 0  0.5 0.75 0  0.5416666666666666 0.75 0  0.5833333333333334 0.75 0  0.625 0.75 0  0.6666666666666666 0.75 0  0.7083333333333334 0.75 0  0.75 0.75 0  0.7916666666666666 0.75 0  0.8333333333333334 0.75 0  0.875 0.75 0  0.9166666666666666 0.75 0  0.9583333333333334 0.75 0  1 0.75 0  0 0.8125 0  0.04166666666666666 0.8125 0  0.08333333333333333 0.8125 0  0.125 0.8125 0  0.1666666666666667 0.8125 0  0.2083333333333333 0.8125 0  0.25 0.8125 0  0.2916666666666667 0.8125 0  0.3333333333333333 0.8125 0  0.375 0.8125 0  0.4166666666666667 0.8125 0  0.4583333333333333 0.8125 0  0.5 0.8125 0  0.5416666666666666 0.8125 0  0.5833333333333334 0.8125 0  0.625 0.8125 0  0.6666666666666666 0.8125 0  0.7083333333333334 0.8125 0  0.75 0.8125 0  0.7916666666666666 0.8125 0  0.8333333333333334 0.8125 0  0.875 0.8125 0  0.9166666666666666 0.8125 0  0.9583333333333334 0.8125 0  1 0.8125 0  0 0.875 0  0.04166666666666666 0.875 0  0.08333333333333333 0.875 0  0.125 0.875 0  0.1666666666666667 0.875 0  0.2083333333333333 0.875 0  0.25 0.875 0  0.2916666666666667 0.875 0  0.3333333333333333 0.875 0  0.375 0.875 0  0.4166666666666667 0.875 0  0.4583333333333333 0.875 0  0.5 0.875 0  0.5416666666666666 0.875 0  0.5833333333333334 0.875 0  0.625 0.875 0  0.6666666666666666 0.875 0  0.7083333333333334 0.875 0  0.75 0.875 0  0.7916666666666666 0.875 0  0.8333333333333334 0.875 0  0.875 0.875 0  0.9166666666666666 0.875 0  0.9583333333333334 0.875 0  1 0.875 0  0 0.9375 0  0.04166666666666666 0.9375 0  0.08333333333333333 0.9375 0  0.125 0.9375 0  0.1666666666666667 0.9375 0  0.2083333333333333 0.9375 0  0.25 0.9375 0  0.2916666666666667 0.9375 0  0.3333333333333333 0.9375 0  0.375 0.9375 0  0.4166666666666667 0.9375 0  0.4583333333333333 0.9375 0  0.5 0.9375 0  0.5416666666666666 0.9375 0  0.5833333333333334 0.9375 0  0.625 0.9375 0  0.6666666666666666 0.9375 0  0.7083333333333334 0.9375 0  0.75 0.9375 0  0.7916666666666666 0.9375 0  0.8333333333333334 0.9375 0  0.875 0.9375 0  0.9166666666666666 0.9375 0  0.9583333333333334 0.9375 0  1 0.9375 0  0 1 0  0.04166666666666666 1 0  0.08333333333333333 1 0  0.125 1 0  0.1666666666666667 1 0  0.2083333333333333 1 0  0.25 1 0  0.2916666666666667 1 0  0.3333333333333333 1 0  0.375 1 0  0.4166666666666667 1 0  0.4583333333333333 1 0  0.5 1 0  0.5416666666666666 1 0  0.5833333333333334 1 0  0.625 1 0  0.6666666666666666 1 0  0.7083333333333334 1 0  0.75 1 0  0.7916666666666666 1 0  0.8333333333333334 1 0  0.875 1 0  0.9166666666666666 1 0  0.9583333333333334 1 0  1 1 0  0 0 0.0625  0.04166666666666666 0 0.0625  0.08333333333333333 0 0.0625  0.125 0 0.0625  0.1666666666666667 0 0.0625  0.2083333333333333 0 
[...]
<PointData  Vectors="f_9"> 
<DataArray  type="Float64"  Name="f_9"  NumberOfComponents="3" format="ascii">0.0000000000000000e+00 0.0000000000000000e+00 0.0000000000000000e+00  1.1278463733871090e-02 2.1887535785292608e-02 2.1905692450604253e-02  2.1772771114266069e-02 3.5408929942661788e-02 3.5453336172687845e-02  3.1252069145866868e-02 4.4876768044955058e-02 4.4947877141658960e-02  3.9786064660334151e-02 5.2015174781011655e-02 5.2110866495020058e-02  4.7485451803419676e-02 5.7722732793024069e-02 5.7839902169495326e-02  5.4451544943262480e-02 6.2508565092575061e-02 6.2643748979066327e-02  6.0765632647685572e-02 6.6674619557350961e-02 6.6824261577777239e-02  6.6489824651740664e-02 7.0405570955402869e-02 7.0566139968984518e-02  7.1670941799723109e-02 7.3816218477955026e-02 7.3984264428207991e-02  7.6344673999528045e-02 7.6977910612601744e-02 7.7150092777446805e-02  8.0538720068030784e-02 7.9933656638184108e-02 8.0106759895022486e-02  8.4275428157024171e-02 8.2707456906109741e-02 8.2878403772397843e-02  8.7573759204817428e-02 8.5310142185805571e-02 8.5476004933574420e-02  9.0450725026507001e-02 8.7743130100215574e-02 8.7901145931066030e-02  9.2922412545864641e-02 9.0000869471361877e-02 9.0148461440251557e-02  9.5004681428095636e-02 9.2072424928166544e-02 9.2207231646380144e-02  9.6713596028476595e-02 9.3942483615506181e-02 9.4062401668541060e-02  9.8065629411161037e-02 9.5591986691667991e-02 9.5695231304212119e-02  9.9077671130948716e-02 9.6998600551517059e-02 9.7083792628501489e-02  9.9766947008306975e-02 9.8137447655913784e-02 9.8203739287787001e-02  1.0015144514416657e-01 9.8983377742413156e-02 9.9030632805069241e-02  1.0025415313920100e-01 9.9519799261512887e-02 9.9548840772779659e-02  1.0013062552302626e-01 9.9778163290043451e-02 9.9791019757663607e-02  1.0000000000000001e-01 1.0000000000000001e-01 1.0000000000000001e-01  0.0000000000000000e+00 0.0000000000000000e+00 0.0000000000000000e+00  7.3723873464184358e-03 1.4841003161970802e-02 2.3607100165456810e-02  1.7456382429632718e-02 2.8480819195514179e-02 3.6387486990561553e-02  2.6905837773895047e-02 3.8531045776152698e-02 4.5493375907868436e-02  3.5530708387568596e-02 4.6250597111408352e-02 5.2436037587620568e-02  4.3371068159206189e-02 5.2477904948113184e-02 5.8036457251243935e-02  5.0501581389689514e-02 5.7724660355501181e-02 6.2762644576746490e-02  5.6991695169747093e-02 6.2305163135064144e-02 6.6895358814121550e-02  6.2898259435681045e-02 6.6415817355040582e-02 7.0608361911469450e-02  6.8266175422406525e-02 7.0180542196581430e-02 7.4010570038640838e-02  7.3130956535268105e-02 7.3677150883622269e-02 7.7169907845905328e-02  7.7521271005048992e-02 7.6953290553019554e-02 8.0127359105850546e-02  8.1460871122277664e-02 8.0035982788726395e-02 8.2905598629449115e-02  8.4970235924461832e-02 8.2937887312463598e-02 8.5514568216242259e-02  8.8067762152995166e-02 8.5661362215740819e-02 8.7955082006805518e-02  9.0770595829897188e-02 8.8201148856320924e-02 9.0221183281903386e-02  9.3095159957872889e-02 9.0546152378463404e-02 9.2301667188700462e-02  9.5057414831902831e-02 9.2680615841516281e-02 9.4181025013470379e-02  9.6672864809169062e-02 9.4584898664044612e-02 9.5839980165405472e-02  9.7956307329539721e-02 9.6236055079906763e-02 9.7255762485776401e-02  9.8921343501796058e-02 9.7608509332141921e-02 9.8402354235210668e-02  9.9579927803779208e-02 9.8675548208942671e-02 9.9251402733800662e-02  9.9943814499994704e-02 9.9413973349464627e-02 9.9776733031745557e-02  1.0003949335470999e-01 9.9821453840986285e-02 9.9977984429152608e-02  1.0000000000000001e-01 1.0000000000000001e-01 1.0000000000000001e-01  0.0000000000000000e+00 0.0000000000000000e+00 0.0000000000000000e+00  6.7097982908224220e-03 1.1575917841836158e-02 2.2904287849575121e-02  1.4888369375790798e-02 2.2828469343419699e-02 3.7484758469944361e-02  2.3768161481150088e-02 3.2720329356491391e-02 4.6433297746715549e-02  3.2177379563525572e-02 4.0689083415743087e-02 5.3192758763350417e-02  3.9972584302222003e-02 4.7268484317367056e-02 5.8650823590211468e-02  4.7151622044243946e-02 5.2885096883955839e-02 6.3272537464563045e-02  5.3745706852627459e-02 5.7828519438182284e-02 6.7330330177450506e-02  5.9790788445033410e-02 6.2289111563490818e-02 7.0991470137456991e-02  6.5319755832107321e-02 6.6390538218289052e-02 7.4360303662197619e-02  7.0360997174030923e-02 7.0211779827853538e-02 7.7501420818450809e-02  7.4938811681883474e-02 7.3801504777783189e-02 8.0453172611980414e-02  7.9074618920167913e-02 7.7187839390775184e-02 8.3236280706791801e-02  8.2787501439299457e-02 8.0384090365158728e-02 8.5858954116888750e-02  8.6094955807034204e-02 8.3392940841896177e-02 8.8320406032042595e-02  8.9013373045224373e-02 8.6209234797606130e-02 9.0613085194685486e-02  9.1558300876935547e-02 8.8821874209262242e-02 9.2724052327328832e-02  9.3744483901640072e-02 9.1215115371972064e-02 9.4635713027524035e-02  9.5585664144492377e-02 9.3369465678316596e-02 9.6326005855728133e-02  9.7094103622909406e-02 9.5262350717781386e-02 9.7768053412996866e-02  9.8279787117201325e-02 9.6868761273815718e-02 9.8929215657196701e-02  9.9149416609269431e-02 9.8162302227571177e-02 9.9769586246352460e-02  9.9706456691399464e-02 9.9117858263126843e-02 1.0024133997592821e-01  9.9961050424742709e-02 9.9720170388631721e-02 1.0030054125982546e-01  1.0000000000000001e-01 1.0000000000000001e-01 1.0000000000000001e-01  0.0000000000000000e+00 0.0000000000000000e+00 0.0000000000000000e+00  6.4354318141803301e-03 9.3460587220662930e-03 2.2684440977982927e-02  1.3911032410224230e-02 1.8985893703864481e-02 3.7158950486990396e-02  2.1780403041051302e-02 2.7757550623314125e-02 4.7059498358643433e-02  2.9751077690361335e-02 3.5543083369134552e-02 5.3900533809742947e-02  3.7348386490029882e-02 4.2232793859155932e-02 5.9322013984997563e-02  4.4468458871782503e-02 4.8077027925639816e-02 6.3887378051799656e-02  5.1089731081806936e-02 5.3296968675459501e-02 6.7894270094293968e-02  5.7217862969188786e-02 5.8054066824914770e-02 7.1516752016682797e-02  6.2867252164466092e-02 6.2459012867891371e-02 7.4860583057972344e-02  6.8054426691409098e-02 6.6584553873908173e-02 7.7989892371692043e-02  7.2795647890440615e-02 7.0475921194910973e-02 8.0941736079704493e-02  7.7106427385371962e-02 7.4158641867143021e-02 8.3734980559306435e-02  8.1002114776333622e-02 7.7644914977071253e-02 8.6376195837250050e-02  8.4497331863319675e-02 8.0936579518650742e-02 8.8862662760011993e-02  8.7606161340125902e-02 8.4027965778115332e-02 9.1184651810908082e-02  9.0342116611839773e-02 8.6907786737699694e-02 9.3326664758881975e-02  9.2717968621092342e-02 8.9560485501884016e-02 9.5267934730314141e-02  9.4745385433966448e-02 9.1967214849453638e-02 9.6982230811023543e-02  9.6434325605825766e-02 9.4106592684092466e-02 9.8436879760923537e-02  9.7792114518481313e-02 9.5955386756239838e-02 9.9590774099971122e-02  9.8822227273384730e-02 9.7489379861699463e-02 1.0039109017027879e-01  9.9523654995337524e-02 9.8685011150735316e-02 1.0076940664604087e-01  9.9897622096581928e-02 9.9523322375755952e-02 1.0064624080248392e-01  1.0000000000000001e-01 1.0000000000000001e-01 1.0000000000000001e-01  0.0000000000000000e+00 0.0000000000000000e+00 0.0000000000000000e+00  6.2812853576489731e-03 7.6485739150847307e-03 2.2574723622661025e-02  1.3372079540454532e-02 1.5952771406399148e-02 3.6937079541059237e-02  2.0742045698084587e-02 2.3777274706862341e-02 4.6934677257915530e-02  2.8149647940426924e-02 3.0941081287006622e-02 5.4268044818174654e-02  3.5451940035632692e-02 3.7480263994283398e-02 5.9813891724790756e-02  4.2430277768925988e-02 4.3385098671558743e-02 6.4411013089817393e-02  4.9010531188375103e-02 4.8773554344033576e-02 6.8419937416126092e-02  5.5165825750724887e-02 5.3756732617510544e-02 7.2038390470419600e-02  6.0889587938113048e-02 5.8419250292798361e-02 7.5381627556503517e-02  6.6184265908225640e-02 6.2819593304080421e-02 7.8517481194577243e-02  7.1056165778931660e-02 6.6994651596943733e-02 8.1483954560930980e-02  7.5513191958231932e-02 7.0964427380835207e-02 8.4299245205324183e-02  7.9564098900430411e-02 7.4736246655568703e-02 8.6967935974833349e-02  8.3219387861132338e-02 7.8309867992391632e-02 8.9485605057822187e-02  8.6489649087857653e-02 8.1678100741298804e-02 9.1840112944893249e-02  8.9385526158476294e-02 8.4828909487631249e-02 9.4013007956988456e-02  9.1917366305698731e-02 8.7746720010052709e-02 9.5979855768922193e-02  9.4094749843908851e-02 9.0413421271210603e-02 9.7709747926957149e-02  9.5925827073149547e-02 9.2809172974745238e-02 9.9163863892112250e-02  9.7416371444136715e-02 9.4913120690111735e-02 1.0029278689276311e-01  9.8568497088265677e-02 9.6704139641704184e-02 1.0103215052244215e-01  9.9379557686705505e-02 9.8161773465288607e-02 1.0129681661950415e-01  9.9846023173607815e-02 9.9267215185418617e-02 1.0098006071083138e-01  1.0000000000000001e-01 1.0000000000000001e-01 1.0000000000000001e-01  0.0000000000000000e+00 0.0000000000000000e+00 0.0000000000000000e+00  6.1826464981886787e-03 6.2651948511937864e-03 2.2465728733065099e-02  1.3039475193654780e-02 1.3386893282203790e-02 3.6721118648696711e-02  2.0105952959181592e-02 2.0327841724785495e-02 4.6722079578428027e-02  2.7188010756478923e-02 2.6887635970340905e-02 5.4178807014727055e-02  3.4168128132498456e-02 3.3057813808944396e-02 6.0001928429495574e-02  4.0960131037906210e-02 3.8865984080255135e-02 6.4720065286999487e-02  4.7449963589050327e-02 4.4311950365878601e-02 6.8792794682607170e-02  5.3584566182600941e-02 4.9444284307810969e-02 7.2451408138493184e-02  5.9338411823266275e-02 5.4311546647460927e-02 7.5827010484104077e-02  6.4700381326559808e-02 5.8950996058446697e-02 7.8994926330393317e-02  6.9666813611386602e-02 6.3386700114063971e-02 8.1996410559762714e-02  7.4237796805751072e-02 6.7630512976674176e-02 8.4850433770103872e-02  7.8415239169648640e-02 7.1683795558383653e-02 8.7560555899672904e-02  8.2202283220850617e-02 7.5539596735961681e-02 9.0119322181718808e-02  8.5605694945304622e-02 7.9188647471607643e-02 9.2512606835115349e-02  8.8632617817171896e-02 8.2617241475795633e-02 9.4718896925167551e-02  9.1290662775576556e-02 8.5809169158434631e-02 9.6710011612423513e-02  9.3587379520432265e-02 8.8746669402213679e-02 9.8450435041647397e-02  9.5529576339000319e-02 9.1411226765175990e-02 9.9895600558446929e-02  9.7122379054810290e-02 9.3784263612794919e-02 1.0098880118453320e-01  9.8367894772134271e-02 9.5847740684061128e-02 1.0165620325982469e-01  9.9263628300765641e-02 9.7584532840942789e-02 1.0179970081167376e-01  9.9803540877478059e-02 9.8977475150708996e-02 1.0129154806697244e-01  1.0000000000000001e-01 1.0000000000000001e-01 1.0000000000000001e-01  0.0000000000000000e+00 0.0000000000000000e+00 0.0000000000000000e+00  6.1156948577784009e-03 5.0662132049815100e-03 2.2314031833414249e-02  1.2824171650967792e-02 1.1095073724823100e-02 3.6448301345519948e-02  1.9698590368883825e-02 1.7194109477907130e-02 4.6413123525901219e-02  2.6570099324491815e-02 2.3154544562898324e-02 5.3919579317995930e-02  3.3343371367470807e-02 2.8937231936272005e-02 5.9858384171026451e-02  3.9946501292250781e-02 3.4534440920007396e-02 6.4757030458020878e-02  4.6320708231005737e-02 3.9944300090561879e-02 6.8944655586879983e-02  5.2399725468682164e-02 4.5154499250075260e-02 7.2686333778633275e-02  5.8145598947211684e-02 5.0174117700855156e-02 7.6129285042077277e-02  6.3536820667263988e-02 5.5014990325989610e-02 7.9357822703273503e-02  6.8561547594060482e-02 5.9685126342543596e-02 8.2417857606366912e-02  7.3213272001289534e-02 6.4186320348076795e-02 8.5330318465910299e-02  7.7488041826026019e-02 6.8513375123433085e-02 8.8098767718911494e-02  8.1382849874173116e-02 7.2653980218494466e-02 9.0713907621725001e-02  8.4895345443906367e-02 7.6589450520861579e-02 9.3156549563315205e-02  8.8029758090904006e-02 8.0304787688771292e-02 9.5403065573804111e-02  9.0790600801091415e-02 8.3782116442785021e-02 9.7421616194746471e-02  9.3183328798639234e-02 8.7003152819553384e-02 9.9172388543253776e-02  9.5213673480158981e-02 8.9949933340788268e-02 1.0060573265490806e-01  9.6886693808904370e-02 9.2605427945528118e-02 1.0165883656045423e-01  9.8205330535335603e-02 9.4953975296623833e-02 1.0225032082755819e-01  9.9168243477856063e-02 9.6981239998201102e-02 1.0227203847800893e-01  9.9768045784510775e-02 9.8672198774478012e-02 1.0157966902034511e-01  1.0000000000000001e-01 1.0000000000000001e-01 1.0000000000000001e-01  0.0000000000000000e+00 0.0000000000000000e+00 0.0000000000000000e+00  6.0683091129166977e-03 3.9621285643016320e-03 2.2096421932128761e-02  1.2681541631202716e-02 8.9481533548674882e-03 3.6080351176368639e-02  1.9432395886532269e-02 1.4233729703164820e-02 4.5979708853492923e-02  2.6164764737121086e-02 1.9606747133072047e-02 5.3497543660193693e-02  3.2794826354728052e-02 2.4996382230184671e-02 5.9507523389318799e-02  3.9262680416028213e-02 3.0363718061594297e-02 6.4517407492870174e-02  4.5518661801153229e-02 3.5677340755194582e-02 6.8847298215402961e-02  5.1521120121881217e-02 4.0910905137691529e-02 7.2704828807951691e-02  5.7228911331977488e-02 4.6038192212615764e-02 7.6246801169713108e-02  6.2615429038304748e-02 5.1045388438261133e-02 7.9564177733982402e-02  6.7663867959168678e-02 5.5923119942026096e-02 8.2707191856214279e-02  7.2363431315767016e-02 6.0662134679754669e-02 8.5699114947235436e-02  7.6706329076855165e-02 6.5250671500203056e-02 8.8544291069357337e-02  8.0685469166062548e-02 6.9672459486520247e-02 9.1232698429614859e-02  8.4292891818794874e-02 7.3904909342714598e-02 9.3742441428041709e-02  8.7519493898758599e-02 7.7917887990802209e-02 9.6041259805044896e-02  9.0368622680868455e-02 8.1693907831526066e-02 9.8095735373637000e-02  9.2843274315331153e-02 8.5212791672105465e-02 9.9862014020517878e-02  9.4948029782307028e-02 8.8455809906342234e-02 1.0128595045275965e-01  9.6688086987771329e-02 9.1406191580970714e-02 1.0229961978705866e-01  9.8067615087033766e-02 9.4049410523323940e-02 1.0281556861192356e-01  9.9086878138385792e-02 9.6372937082256402e-02 1.0271768215764422e-01  9.9737649848337592e-02 9.8364070044487634e-02 1.0184826546995407e-01  1.0000000000000001e-01 1.0000000000000001e-01 1.0000000000000001e-01  0.0000000000000000e+00 0.0000000000000000e+00 0.0000000000000000e+00  6.0327340663662915e-03 2.8845759914657657e-03 2.1795842049644562e-02  1.2584390530840176e-02 6.8503421411967563e-03 3.5589105830836174e-02  1.9254330499509850e-02 1.1344061565999744e-02 4.5394680915626318e-02  2.5891169388440542e-02 1.6147269827421557e-02 5.2898365121002572e-02  3.2416695922730977e-02 2.1153604250289542e-02 5.8955260494769367e-02  3.8778152116194724e-02 2.6290135230036950e-02 6.4055358233195456e-02  4.4933975986341558e-02 3.1496972220346454e-02 6.8502547116640999e-02  5.0849480557051761e-02 3.6723234722378546e-02 7.2494418979061073e-02  5.6496076875790266e-02 4.1926815496505253e-02 7.6160432416792156e-02  6.1848107745333301e-02 4.7071798954482755e-02 7.9592272037374789e-02  6.6887818805750898e-02 5.2132263046159810e-02 8.2842010585509704e-02  7.1603036742885900e-02 5.7087963068187329e-02 8.5934498713541127e-02  7.5984655787994168e-02 6.1920918296370336e-02 8.8875014519989429e-02  8.0024209999476820e-02 6.6612388889506907e-02 9.1653712990446445e-02  8.3711522486736689e-02 7.1139535808963053e-02 9.4247736597605547e-02  8.7032546828702387e-02 7.5471175237472571e-02 9.6621647208989594e-02  8.9967781172759845e-02 7.9561914599403954e-02 9.8726677812257455e-02  9.2522443813122066e-02 8.3395367596989622e-02 1.0051936194632166e-01  9.4699418576146513e-02 8.6950120520148000e-02 1.0194132164548936e-01  9.6503800398262313e-02 9.0207793781863277e-02 1.0292011485053090e-01  9.7940973264897313e-02 9.3153262639457432e-02 1.0336312646838984e-01  9.9012842007603241e-02 9.5774520810095187e-02 1.0314756272560371e-01  9.9710412616621599e-02 9.8061462815846073e-02 1.0210466826687062e-01  1.0000000000000001e-01 1.0000000000000001e-01 1.0000000000000001e-01  0.0000000000000000e+00 0.0000000000000000e+00 0.0000000000000000e+00  6.0030770297712132e-03 1.7760496186308324e-03 2.1395916346215720e-02  1.2513321469564060e-02 4.7251758200308061e-03 3.4949143127697910e-02  1.9126759242777635e-02 8.4471995210971419e-03 4.4631919978014779e-02  2.5691282359695811e-02 1.2705305626160323e-02 5.2102427889768231e-02  3.2131055186098857e-02 1.7350295536727334e-02 5.8193298631580147e-02  3.8398175004048317e-02 2.2270878794442429e-02 6.3375544287146618e-02  4.4457484964422929e-02 2.7376551670217276e-02 6.7936978603781062e-02  5.0281280704489457e-02 3.2592320990544314e-02 7.2061735128613441e-02  5.5847269721476557e-02 3.7856613601909624e-02 7.5869920040502609e-02  6.1137794256803317e-02 4.3119894550156364e-02 7.9438560622553306e-02  6.6138034996535991e-02 4.8342238962610612e-02 8.2817466031409812e-02  7.0837389541202139e-02 5.3493427811314123e-02 8.6031150550561528e-02  7.5227931992790681e-02 5.8549818902834040e-02 8.9085189227148975e-02  7.9302427226379216e-02 6.3491193525608086e-02 9.1970202715672911e-02  8.3051951754816486e-02 6.8297124916754770e-02 9.4663721275844256e-02  8.6462840818657002e-02 7.2941757432893328e-02 9.7130028431835463e-02  8.9512598856802836e-02 7.7385159289451458e-02 9.9317908409784023e-02  9.2162848633059041e-02 8.1554906948346037e-02 1.0115489308194044e-01  9.4425800580019467e-02 8.5440988127665166e-02 1.0258784387548603e-01  9.6305724873817153e-02 8.9020831406435130e-02 1.0353981340138321e-01  9.7808792244969286e-02 9.2276387503535257e-02 1.0391327833839417e-01  9.8938249963927166e-02 9.5194599317035833e-02 1.0357926728988982e-01  9.9684096946041911e-02 9.7768701402114341e-02 1.0235960103306022e-01  1.0000000000000001e-01 1.0000000000000001e-01 1.0000000000000001e-01  0.0000000000000000e+00 0.0000000000000000e+00 0.0000000000000000e+00  5.9741100348013479e-03 5.8324453242575758e-04 2.0878172828515614e-02  1.2452207811922002e-02 2.5080876742222006e-03 3.4133868820867906e-02  1.9018374577076745e-02 5.4828551747391372e-03 4.3664521774424057e-02  2.5516297707071558e-02 9.2303928575329063e-03 5.1088318165014246e-02  3.1871260142944495e-02 1.3547799247230064e-02 5.7209358207746579e-02  3.8039772255950323e-02 1.8279853126994219e-02 6.2476305505356336e-02  4.3992899850539557e-02 2.3302815793750736e-02 6.7159053675934693e-02  4.9709878229554735e-02 2.8516789914387764e-02 7.1427356880315512e-02  5.5175287323290793e-02 3.3841426267246025e-02 7.5389923109736814e-02  6.0377600933993983e-02 3.9212851073903078e-02 7.9115592909616048e-02  6.5308308220980146e-02 4.4581167765119285e-02 8.2645264791862086e-02  6.9960758667931944e-02 4.9907825026026767e-02 8.6000554575258889e-02  7.4330210855569470e-02 5.5164194328920890e-02 8.9186020967080740e-02  7.8412628304387694e-02 6.0328905400671318e-02 9.2192318473255735e-02  8.2202881469138511e-02 6.5384786854980448e-02 9.4997804849865461e-02  8.5692003298237465e-02 7.0314519928378783e-02 9.7568341196176051e-02  8.8862511645049422e-02 7.5092717639129974e-02 9.9854666578156254e-02  9.1679733948044781e-02 7.9669071425218410e-02 1.0178588185625148e-01  9.4067479631286546e-02 8.3916095232423174e-02 1.0325080361072746e-01  9.6055071576659476e-02 8.7840716864868038e-02 1.0418863291932580e-01  9.7648873122523946e-02 9.1418834559787221e-02 1.0449632838713777e-01  9.8852951123959906e-02 9.4634345974305298e-02 1.0403829356547414e-01  9.9655940737026466e-02 9.7485564000975411e-02 1.0262798461018476e-01  1.0000000000000001e-01 1.0000000000000001e-01 1.0000000000000001e-01  0.0000000000000000e+00 0.0000000000000000e+00 0.0000000000000000e+00  5.9405851410671137e-03 -7.4760287803252396e-04 2.0219995197500614e-02  1.2385496333328862e-02 1.4283665918846396e-04 3.3113093569220937e-02  1.8898561329244494e-02 2.4058675968694023e-03 4.2463650045164301e-02  2.5317846865460319e-02 5.6906471094502423e-03 4.9834204541026279e-02  3.1570599478507731e-02 9.7264175883458055e-03 5.5991595439505999e-02  3.7619063531909094e-02 1.4307878721040185e-02 6.1356723272740082e-02  4.3441665582218118e-02 1.9275685230292234e-02 6.6178241724144826e-02  4.9025381804826643e-02 2.4504586328156375e-02 7.0609597601128685e-02  5.43621965035