<?xml version="1.0"?>
<VTKFile type="UnstructuredGrid"  version="0.1"  >
<UnstructuredGrid>
<Piece  NumberOfPoints="2022" NumberOfCells="9237">
<Points>
<DataArray  type="Float64"  NumberOfComponents="3"  format="ascii">0 0 0.1875  0.04166666666666666 0 0.1875  0.04166666666666666 0 0.25  0.04166666666666666 0.0625 0.25  0 0 0.25  0 0.0625 0.25  0.08333333333333333 0 0.1875  0.08333333333333333 0.0625 0.1875  0.08333333333333333 0.0625 0.25  0.08333333333333333 0 0.25  0.125 0 0.1875  0.125 0.0625 0.1875  0.125 0.0625 0.25  0.125 0 0.25  0.1666666666666667 0 0.1875  0.1666666666666667 0 0.25  0.1666666666666667 0.0625 0.25  0.2083333333333333 0 0.25  0.2083333333333333 0.0625 0.25  0.25 0 0.1875  0.2916666666666667 0 0.1875  0.2916666666666667 0 0.25  0.2916666666666667 0.0625 0.25  0.25 0 0.25  0.3333333333333333 0 0.25  0.3333333333333333 0.0625 0.25  0.125 0.125 0.25  0.1666666666666667 0.125 0.25  0.04166666666666666 0.0625 0.3125  0.04166666666666666 0 0.3125  0 0 0.3125  0 0.0625 0.3125  0.08333333333333333 0.0625 0.3125  0.08333333333333333 0 0.3125  0.125 0.0625 0.3125  0.125 0 0.3125  0.1666666666666667 0.0625 0.3125  0.1666666666666667 0 0.3125  0.2083333333333333 0.0625 0.3125  0.2083333333333333 0 0.3125  0.25 0.0625 0.25  0.25 0.0625 0.3125  0.25 0 0.3125  0.2916666666666667 0.0625 0.3125  0.2916666666666667 0 0.3125  0.3333333333333333 0.0625 0.3125  0.3333333333333333 0 0.3125  0.04166666666666666 0.125 0.3125  0 0.125 0.3125  0 0.125 0.25  0.08333333333333333 0.125 0.3125  0.125 0.125 0.3125  0.1666666666666667 0.125 0.3125  0.2083333333333333 0.125 0.3125  0.25 0.125 0.3125  0.2916666666666667 0.125 0.3125  0.3333333333333333 0.125 0.3125  0.375 0.125 0.3125  0.04166666666666666 0.1875 0.3125  0 0.1875 0.3125  0.1666666666666667 0.1875 0.3125  0.2083333333333333 0.1875 0.3125  0.04166666666666666 0.0625 0.375  0.04166666666666666 0 0.375  0 0 0.375  0 0.0625 0.375  0.08333333333333333 0.0625 0.375  0.08333333333333333 0 0.375  0.125 0.0625 0.375  0.125 0 0.375  0.1666666666666667 0.0625 0.375  0.1666666666666667 0 0.375  0.2083333333333333 0.0625 0.375  0.2083333333333333 0 0.375  0.25 0.0625 0.375  0.25 0 0.375  0.2916666666666667 0.0625 0.375  0.2916666666666667 0 0.375  0.3333333333333333 0.0625 0.375  0.3333333333333333 0 0.375  0.04166666666666666 0.125 0.375  0 0.125 0.375  0.08333333333333333 0.125 0.375  0.125 0.125 0.375  0.1666666666666667 0.125 0.375  0.2083333333333333 0.125 0.375  0.25 0.125 0.375  0.2916666666666667 0.125 0.375  0.3333333333333333 0.125 0.375  0.375 0.125 0.375  0.04166666666666666 0.1875 0.375  0 0.1875 0.375  0.08333333333333333 0.1875 0.375  0.125 0.1875 0.375  0.1666666666666667 0.1875 0.375  0.2083333333333333 0.1875 0.375  0.25 0.1875 0.375  0.2916666666666667 0.1875 0.375  0.3333333333333333 0.1875 0.375  0.375 0.1875 0.375  0.04166666666666666 0.25 0.375  0 0.25 0.375  0 0.25 0.3125  0.08333333333333333 0.25 0.375  0.04166666666666666 0.3125 0.375  0 0.3125 0.375  0.04166666666666666 0.0625 0.4375  0.04166666666666666 0 0.4375  0 0 0.4375  0 0.0625 0.4375  0.08333333333333333 0.0625 0.4375  0.08333333333333333 0 0.4375  0.125 0.0625 0.4375  0.125 0 0.4375  0.1666666666666667 0.0625 0.4375  0.1666666666666667 0 0.4375  0.2083333333333333 0.0625 0.4375  0.2083333333333333 0 0.4375  0.25 0.0625 0.4375  0.25 0 0.4375  0.2916666666666667 0.0625 0.4375  0.2916666666666667 0 0.4375  0.3333333333333333 0.0625 0.4375  0.3333333333333333 0 0.4375  0.04166666666666666 0.125 0.4375  0 0.125 0.4375  0.08333333333333333 0.125 0.4375  0.125 0.125 0.4375  0.1666666666666667 0.125 0.4375  0.2083333333333333 0.125 0.4375  0.25 0.125 0.4375  0.2916666666666667 0.125 0.4375  0.3333333333333333 0.125 0.4375  0.375 0.125 0.4375  0.04166666666666666 0.1875 0.4375  0 0.1875 0.4375  0.08333333333333333 0.1875 0.4375  0.125 0.1875 0.4375  0.1666666666666667 0.1875 0.4375  0.2083333333333333 0.1875 0.4375  0.25 0.1875 0.4375  0.2916666666666667 0.1875 0.4375  0.3333333333333333 0.1875 0.4375  0.375 0.1875 0.4375  0.4166666666666667 0.1875 0.4375  0.04166666666666666 0.25 0.4375  0 0.25 0.4375  0.08333333333333333 0.25 0.4375  0.125 0.25 0.4375  0.1666666666666667 0.25 0.375  0.1666666666666667 0.25 0.4375  0.2083333333333333 0.25 0.375  0.2083333333333333 0.25 0.4375  0.25 0.25 0.4375  0.2916666666666667 0.25 0.4375  0.3333333333333333 0.25 0.4375  0.375 0.25 0.4375  0.4166666666666667 0.25 0.4375  0.04166666666666666 0.3125 0.4375  0 0.3125 0.4375  0.08333333333333333 0.3125 0.375  0.08333333333333333 0.3125 0.4375  0.125 0.3125 0.4375  0.2083333333333333 0.3125 0.4375  0.1666666666666667 0.3125 0.4375  0.25 0.3125 0.4375  0.04166666666666666 0.375 0.375  0.04166666666666666 0.375 0.4375  0 0.375 0.375  0 0.375 0.4375  0.08333333333333333 0.375 0.4375  0.125 0.375 0.4375  0.04166666666666666 0.4375 0.375  0.04166666666666666 0.4375 0.4375  0 0.4375 0.375  0 0.4375 0.4375  0.08333333333333333 0.4375 0.4375  0.04166666666666666 0.5 0.4375  0 0.5 0.4375  0 0.5 0.375  0.08333333333333333 0.5 0.4375  0.04166666666666666 0.5625 0.4375  0 0.5625 0.4375  0.04166666666666666 0.0625 0.5  0.04166666666666666 0 0.5  0 0 0.5  0 0.0625 0.5  0.08333333333333333 0.0625 0.5  0.08333333333333333 0 0.5  0.125 0.0625 0.5  0.125 0 0.5  0.1666666666666667 0.0625 0.5  0.1666666666666667 0 0.5  0.2083333333333333 0.0625 0.5  0.2083333333333333 0 0.5  0.25 0.0625 0.5  0.25 0 0.5  0.2916666666666667 0.0625 0.5  0.2916666666666667 0 0.5  0.3333333333333333 0.0625 0.5  0.3333333333333333 0 0.5  0.04166666666666666 0.125 0.5  0 0.125 0.5  0.08333333333333333 0.125 0.5  0.125 0.125 0.5  0.1666666666666667 0.125 0.5  0.2083333333333333 0.125 0.5  0.25 0.125 0.5  0.2916666666666667 0.125 0.5  0.3333333333333333 0.125 0.5  0.375 0.125 0.5  0.04166666666666666 0.1875 0.5  0 0.1875 0.5  0.08333333333333333 0.1875 0.5  0.125 0.1875 0.5  0.1666666666666667 0.1875 0.5  0.2083333333333333 0.1875 0.5  0.25 0.1875 0.5  0.2916666666666667 0.1875 0.5  0.3333333333333333 0.1875 0.5  0.375 0.1875 0.5  0.4166666666666667 0.1875 0.5  0.04166666666666666 0.25 0.5  0 0.25 0.5  0.08333333333333333 0.25 0.5  0.125 0.25 0.5  0.1666666666666667 0.25 0.5  0.2083333333333333 0.25 0.5  0.25 0.25 0.5  0.2916666666666667 0.25 0.5  0.3333333333333333 0.25 0.5  0.375 0.25 0.5  0.4166666666666667 0.25 0.5  0.04166666666666666 0.3125 0.5  0 0.3125 0.5  0.08333333333333333 0.3125 0.5  0.125 0.3125 0.5  0.1666666666666667 0.3125 0.5  0.2083333333333333 0.3125 0.5  0.25 0.3125 0.5  0.2916666666666667 0.3125 0.4375  0.2916666666666667 0.3125 0.5  0.3333333333333333 0.3125 0.4375  0.3333333333333333 0.3125 0.5  0.375 0.3125 0.4375  0.375 0.3125 0.5  0.4166666666666667 0.3125 0.4375  0.4166666666666667 0.3125 0.5  0.04166666666666666 0.375 0.5  0 0.375 0.5  0.08333333333333333 0.375 0.5  0.125 0.375 0.5  0.1666666666666667 0.375 0.4375  0.1666666666666667 0.375 0.5  0.2083333333333333 0.375 0.4375  0.2083333333333333 0.375 0.5  0.25 0.375 0.4375  0.25 0.375 0.5  0.2916666666666667 0.375 0.4375  0.2916666666666667 0.375 0.5  0.3333333333333333 0.375 0.5  0.375 0.375 0.5  0.4166666666666667 0.375 0.5  0.4583333333333333 0.375 0.5  0.04166666666666666 0.4375 0.5  0 0.4375 0.5  0.08333333333333333 0.4375 0.5  0.125 0.4375 0.4375  0.125 0.4375 0.5  0.1666666666666667 0.4375 0.5  0.2083333333333333 0.4375 0.5  0.25 0.4375 0.5  0.2916666666666667 0.4375 0.5  0.3333333333333333 0.4375 0.5  0.04166666666666666 0.5 0.5  0 0.5 0.5  0.08333333333333333 0.5 0.5  0.125 0.5 0.4375  0.125 0.5 0.5  0.1666666666666667 0.5 0.5  0.04166666666666666 0.5625 0.5  0 0.5625 0.5  0.08333333333333333 0.5625 0.5  0.125 0.5625 0.5  0.1666666666666667 0.5625 0.5  0.04166666666666666 0.625 0.5  0 0.625 0.5  0.08333333333333333 0.625 0.5  0.04166666666666666 0.0625 0.5625  0.04166666666666666 0 0.5625  0 0 0.5625  0 0.0625 0.5625  0.08333333333333333 0.0625 0.5625  0.08333333333333333 0 0.5625  0.125 0.0625 0.5625  0.125 0 0.5625  0.1666666666666667 0.0625 0.5625  0.1666666666666667 0 0.5625  0.2083333333333333 0.0625 0.5625  0.2083333333333333 0 0.5625  0.25 0.0625 0.5625  0.25 0 0.5625  0.2916666666666667 0.0625 0.5625  0.2916666666666667 0 0.5625  0.3333333333333333 0.0625 0.5625  0.3333333333333333 0 0.5625  0.375 0 0.5625  0.375 0.0625 0.5625  0.04166666666666666 0.125 0.5625  0 0.125 0.5625  0.08333333333333333 0.125 0.5625  0.125 0.125 0.5625  0.1666666666666667 0.125 0.5625  0.2083333333333333 0.125 0.5625  0.25 0.125 0.5625  0.2916666666666667 0.125 0.5625  0.3333333333333333 0.125 0.5625  0.375 0.125 0.5625  0.04166666666666666 0.1875 0.5625  0 0.1875 0.5625  0.08333333333333333 0.1875 0.5625  0.125 0.1875 0.5625  0.1666666666666667 0.1875 0.5625  0.2083333333333333 0.1875 0.5625  0.25 0.1875 0.5625  0.2916666666666667 0.1875 0.5625  0.3333333333333333 0.1875 0.5625  0.375 0.1875 0.5625  0.4166666666666667 0.1875 0.5625  0.04166666666666666 0.25 0.5625  0 0.25 0.5625  0.08333333333333333 0.25 0.5625  0.125 0.25 0.5625  0.1666666666666667 0.25 0.5625  0.2083333333333333 0.25 0.5625  0.25 0.25 0.5625  0.2916666666666667 0.25 0.5625  0.3333333333333333 0.25 0.5625  0.375 0.25 0.5625  0.4166666666666667 0.25 0.5625  0.4583333333333333 0.25 0.5625  0.04166666666666666 0.3125 0.5625  0 0.3125 0.5625  0.08333333333333333 0.3125 0.5625  0.125 0.3125 0.5625  0.1666666666666667 0.3125 0.5625  0.2083333333333333 0.3125 0.5625  0.25 0.3125 0.5625  0.2916666666666667 0.3125 0.5625  0.3333333333333333 0.3125 0.5625  0.375 0.3125 0.5625  0.4166666666666667 0.3125 0.5625  0.4583333333333333 0.3125 0.5625  0.04166666666666666 0.375 0.5625  0 0.375 0.5625  0.08333333333333333 0.375 0.5625  0.125 0.375 0.5625  0.1666666666666667 0.375 0.5625  0.2083333333333333 0.375 0.5625  0.25 0.375 0.5625  0.2916666666666667 0.375 0.5625  0.3333333333333333 0.375 0.5625  0.375 0.375 0.5625  0.4166666666666667 0.375 0.5625  0.4583333333333333 0.375 0.5625  0.04166666666666666 0.4375 0.5625  0 0.4375 0.5625  0.08333333333333333 0.4375 0.5625  0.125 0.4375 0.5625  0.1666666666666667 0.4375 0.5625  0.20
[...]
<PointData  Vectors="f_13"> 
<DataArray  type="Float64"  Name="f_13"  NumberOfComponents="3" format="ascii">9.9999999999999992e-02 0.0000000000000000e+00 0.0000000000000000e+00  1.0000000000000002e-01 0.0000000000000000e+00 0.0000000000000000e+00  1.0000000000000002e-01 0.0000000000000000e+00 0.0000000000000000e+00  9.9999999999999672e-02 -3.3622188034861516e-16 -3.0611981537457903e-16  9.9999999999999992e-02 0.0000000000000000e+00 0.0000000000000000e+00  1.0000000000000002e-01 0.0000000000000000e+00 0.0000000000000000e+00  1.0000000000000002e-01 0.0000000000000000e+00 0.0000000000000000e+00  9.9999999999999603e-02 -3.4456407086334094e-16 -4.6669921203486327e-16  9.9999999999999561e-02 -4.0338702935490547e-16 -5.5293015001803865e-16  1.0000000000000002e-01 0.0000000000000000e+00 0.0000000000000000e+00  1.0000000000000002e-01 0.0000000000000000e+00 0.0000000000000000e+00  9.9999999999999548e-02 -4.0278631687975225e-16 -6.9749086101799163e-16  9.9999999999999631e-02 -3.3076448840494781e-16 -6.6738781691973244e-16  1.0000000000000002e-01 0.0000000000000000e+00 0.0000000000000000e+00  1.0000000000000002e-01 0.0000000000000000e+00 0.0000000000000000e+00  1.0000000000000002e-01 0.0000000000000000e+00 0.0000000000000000e+00  9.9999999999999672e-02 -1.5855085917970185e-16 -5.3916798627837445e-16  1.0000000000000002e-01 0.0000000000000000e+00 0.0000000000000000e+00  9.9999999999999464e-02 -2.5023596129125381e-16 -5.3257754687958478e-16  1.0000000000000002e-01 0.0000000000000000e+00 0.0000000000000000e+00  1.0000000000000002e-01 0.0000000000000000e+00 0.0000000000000000e+00  1.0000000000000002e-01 0.0000000000000000e+00 0.0000000000000000e+00  9.9999999999999437e-02 1.5885001827237031e-17 -1.7644154415883257e-16  1.0000000000000002e-01 0.0000000000000000e+00 0.0000000000000000e+00  1.0000000000000002e-01 0.0000000000000000e+00 0.0000000000000000e+00  9.9999999999999187e-02 -2.6861597525128222e-16 -3.5589689716789142e-16  9.9999999999999797e-02 -7.6003573910092418e-16 -9.1650625173741394e-16  9.9999999999999936e-02 -4.2151111656407355e-16 -9.0072044858979664e-16  9.9999999999999853e-02 -2.8199320114178647e-16 -2.9307660061165493e-16  1.0000000000000002e-01 0.0000000000000000e+00 0.0000000000000000e+00  9.9999999999999992e-02 0.0000000000000000e+00 0.0000000000000000e+00  1.0000000000000002e-01 0.0000000000000000e+00 0.0000000000000000e+00  9.9999999999999659e-02 -3.7956271034579679e-16 -5.9322679811812080e-16  1.0000000000000002e-01 0.0000000000000000e+00 0.0000000000000000e+00  9.9999999999999575e-02 -3.8324881723199622e-16 -8.3799211211390352e-16  1.0000000000000002e-01 0.0000000000000000e+00 0.0000000000000000e+00  9.9999999999999659e-02 -2.5124686933229093e-16 -8.3821086567974153e-16  1.0000000000000002e-01 0.0000000000000000e+00 0.0000000000000000e+00  9.9999999999999631e-02 -3.1608009772551047e-16 -6.1883843777843999e-16  1.0000000000000002e-01 0.0000000000000000e+00 0.0000000000000000e+00  9.9999999999999492e-02 -1.7999661013667938e-16 -3.4416442551352675e-16  9.9999999999999659e-02 -2.3231379772137678e-16 -5.2238428823065070e-16  1.0000000000000002e-01 0.0000000000000000e+00 0.0000000000000000e+00  9.9999999999999770e-02 -1.2681526253415962e-16 -3.7924256051865732e-16  1.0000000000000002e-01 0.0000000000000000e+00 0.0000000000000000e+00  9.9999999999999853e-02 -8.7953746603035416e-17 -2.1685267621422780e-16  1.0000000000000002e-01 0.0000000000000000e+00 0.0000000000000000e+00  9.9999999999999770e-02 -3.9132812456443142e-16 -4.1389302987781048e-16  1.0000000000000002e-01 0.0000000000000000e+00 0.0000000000000000e+00  1.0000000000000002e-01 0.0000000000000000e+00 0.0000000000000000e+00  9.9999999999999492e-02 -5.7576210995839807e-16 -7.5089598888778586e-16  9.9999999999999339e-02 -5.3187444172401290e-16 -9.8624346326768807e-16  9.9999999999999353e-02 -3.6138448200672730e-16 -1.1113232291075821e-15  9.9999999999999395e-02 -7.0675625296450115e-17 -7.8304343726466383e-16  9.9999999999999020e-02 -2.0585076393991510e-16 -6.7213074788510888e-16  9.9999999999998770e-02 -1.8510583797340379e-16 -5.3184614304121623e-16  9.9999999999998784e-02 2.7644671754368331e-17 -1.6128973600528295e-16  9.9999999999998299e-02 -5.8462665293664241e-16 -3.0138841764219247e-16  9.9999999999999645e-02 -5.4311880020122772e-16 -4.7782602534543099e-16  1.0000000000000002e-01 0.0000000000000000e+00 0.0000000000000000e+00  9.9999999999999062e-02 -5.0357904099735770e-16 -1.1034997781457676e-15  9.9999999999999062e-02 -1.3060860565737053e-16 -8.3328818973790699e-16  9.9999999999999686e-02 -3.6306289145931024e-16 -3.5407390127400108e-16  1.0000000000000002e-01 0.0000000000000000e+00 0.0000000000000000e+00  9.9999999999999992e-02 0.0000000000000000e+00 0.0000000000000000e+00  1.0000000000000002e-01 0.0000000000000000e+00 0.0000000000000000e+00  9.9999999999999464e-02 -4.5536131243587816e-16 -5.5653367636338073e-16  1.0000000000000002e-01 0.0000000000000000e+00 0.0000000000000000e+00  9.9999999999999353e-02 -3.2074902725225548e-16 -7.0604476387533862e-16  1.0000000000000002e-01 0.0000000000000000e+00 0.0000000000000000e+00  9.9999999999999201e-02 -2.8848115703337028e-16 -8.8657007106466927e-16  1.0000000000000002e-01 0.0000000000000000e+00 0.0000000000000000e+00  9.9999999999999076e-02 -1.5178537613324725e-16 -5.8567424225148992e-16  1.0000000000000002e-01 0.0000000000000000e+00 0.0000000000000000e+00  9.9999999999998923e-02 -1.5941828093712527e-16 -4.4945417890424013e-16  1.0000000000000002e-01 0.0000000000000000e+00 0.0000000000000000e+00  9.9999999999998770e-02 -9.2808199731706670e-17 -4.0526560052489008e-16  1.0000000000000002e-01 0.0000000000000000e+00 0.0000000000000000e+00  9.9999999999998618e-02 -2.1737252183215530e-16 -2.9815314716710656e-16  1.0000000000000002e-01 0.0000000000000000e+00 0.0000000000000000e+00  9.9999999999999672e-02 -4.8959982905860814e-16 -4.8009946780422761e-16  1.0000000000000002e-01 0.0000000000000000e+00 0.0000000000000000e+00  9.9999999999999450e-02 -5.4601531936770718e-16 -5.6616829836901903e-16  9.9999999999999048e-02 -5.2029422916851018e-16 -9.2745666040962874e-16  9.9999999999998576e-02 -4.8007245882172075e-16 -1.2708378825084731e-15  9.9999999999998340e-02 -2.3330146691260889e-16 -1.0303463924369366e-15  9.9999999999997910e-02 -3.5013982895630965e-16 -7.4728364022685768e-16  9.9999999999997632e-02 -2.3754633345836232e-16 -5.1033897262575026e-16  9.9999999999997424e-02 -1.7016719848943505e-16 -3.2146530266973090e-16  9.9999999999997077e-02 -4.6599168934944485e-16 -2.3419802137595274e-16  9.9999999999999534e-02 -5.5455107284632237e-16 -4.5992302538379437e-16  1.0000000000000002e-01 0.0000000000000000e+00 0.0000000000000000e+00  9.9999999999999187e-02 -5.9608230421597451e-16 -7.6268689131778745e-16  9.9999999999998715e-02 -5.8081697986767094e-16 -1.1539692416756410e-15  9.9999999999998493e-02 -4.2104475732291780e-16 -1.2245196774109900e-15  9.9999999999998368e-02 -1.5871876256398246e-16 -9.8375097725165484e-16  9.9999999999998243e-02 -2.7513073753422615e-17 -7.3754421585491536e-16  9.9999999999997979e-02 -2.2326477882389870e-16 -5.2900359162732712e-16  9.9999999999997966e-02 -3.6834206233986977e-16 -5.3462126261191280e-16  9.9999999999998299e-02 -1.5652230932503691e-16 -1.1163277863090450e-16  9.9999999999999450e-02 -4.1919153734689140e-16 -5.7754530098019739e-16  1.0000000000000002e-01 0.0000000000000000e+00 0.0000000000000000e+00  1.0000000000000002e-01 0.0000000000000000e+00 0.0000000000000000e+00  9.9999999999998895e-02 -5.9988266659364922e-16 -1.0142148218648815e-15  9.9999999999999534e-02 -2.5645531649012727e-16 -7.5647294091303699e-16  1.0000000000000002e-01 0.0000000000000000e+00 0.0000000000000000e+00  9.9999999999999631e-02 -4.6259983072561348e-16 -2.7673915738306300e-16  1.0000000000000002e-01 0.0000000000000000e+00 0.0000000000000000e+00  9.9999999999999992e-02 0.0000000000000000e+00 0.0000000000000000e+00  1.0000000000000002e-01 0.0000000000000000e+00 0.0000000000000000e+00  9.9999999999999381e-02 -4.8494767512709372e-16 -3.6606924390388560e-16  1.0000000000000002e-01 0.0000000000000000e+00 0.0000000000000000e+00  9.9999999999999187e-02 -3.2081960700455194e-16 -5.4874954261076561e-16  1.0000000000000002e-01 0.0000000000000000e+00 0.0000000000000000e+00  9.9999999999998840e-02 -3.6897552956196496e-16 -8.0757024109730008e-16  1.0000000000000002e-01 0.0000000000000000e+00 0.0000000000000000e+00  9.9999999999998729e-02 -2.6110539922800998e-16 -6.3543232457101964e-16  1.0000000000000002e-01 0.0000000000000000e+00 0.0000000000000000e+00  9.9999999999998590e-02 -2.3674220807856590e-16 -5.2809892736377076e-16  1.0000000000000002e-01 0.0000000000000000e+00 0.0000000000000000e+00  9.9999999999998548e-02 -1.3898948937553498e-16 -4.5355798667398689e-16  1.0000000000000002e-01 0.0000000000000000e+00 0.0000000000000000e+00  9.9999999999998479e-02 -2.2410425780048965e-16 -4.1368074174242790e-16  1.0000000000000002e-01 0.0000000000000000e+00 0.0000000000000000e+00  9.9999999999999464e-02 -6.3834658696704698e-16 -3.0221673655633634e-16  1.0000000000000002e-01 0.0000000000000000e+00 0.0000000000000000e+00  9.9999999999998992e-02 -7.9197681144335088e-16 -4.6755071714623981e-16  9.9999999999998618e-02 -5.4704760163989817e-16 -6.9111552761412273e-16  9.9999999999998201e-02 -4.4771167775813967e-16 -9.2537421071939807e-16  9.9999999999997730e-02 -4.1709209403759350e-16 -9.9955926043762074e-16  9.9999999999997535e-02 -2.7922908305755098e-16 -6.1109480632673384e-16  9.9999999999997563e-02 -1.4289079678620840e-16 -3.6848057673942012e-16  9.9999999999997577e-02 -1.5443727997401719e-16 -3.5066683466260731e-16  9.9999999999997535e-02 -2.6153160738790719e-16 -1.1154829855554985e-16  9.9999999999999464e-02 -6.8860820215867792e-16 -2.4468003227042566e-16  1.0000000000000002e-01 0.0000000000000000e+00 0.0000000000000000e+00  9.9999999999998965e-02 -8.1448446328246271e-16 -5.6657325692391091e-16  9.9999999999998451e-02 -5.3962217035002595e-16 -8.1841320729294278e-16  9.9999999999997771e-02 -5.0427485032673743e-16 -1.0165046592501116e-15  9.9999999999997188e-02 -5.1399532963850629e-16 -1.0685823029691976e-15  9.9999999999996925e-02 -2.8400877727360932e-16 -8.9819386027500796e-16  9.9999999999996647e-02 -4.5620538455924380e-16 -6.8080648432974143e-16  9.9999999999996772e-02 -2.7293327564556726e-16 -4.8621473857317574e-16  9.9999999999996758e-02 -2.3281987255600407e-16 -2.6837836381547495e-16  9.9999999999996564e-02 -4.5315268758200937e-16 2.6270300435812534e-16  9.9999999999999312e-02 -6.3330683500000040e-16 -3.7252800033094995e-16  1.0000000000000002e-01 0.0000000000000000e+00 0.0000000000000000e+00  9.9999999999998465e-02 -8.0036201020379954e-16 -7.4389737614740242e-16  9.9999999999997716e-02 -4.9417933309238326e-16 -9.6837943487777909e-16  9.9999999999998174e-02 -2.1452032807642096e-16 -1.0168370793508058e-15  9.9999999999997091e-02 -4.5882373933101405e-16 -1.1422805844161421e-15  9.9999999999997785e-02 -6.7846960971067869e-17 -8.4699674224361197e-16  9.9999999999996730e-02 -3.3142087944239550e-16 -9.8339099739435457e-16  9.9999999999996425e-02 -1.2695233526031680e-16 -8.3217369017431548e-16  9.9999999999996134e-02 -1.7051544656240360e-16 -6.5212499375965331e-16  9.9999999999995842e-02 -4.3909183600121454e-16 -5.8011105586798896e-16  9.9999999999995690e-02 -5.7038782979970840e-16 -6.2226857279335382e-16  9.9999999999995870e-02 -3.0282270603304473e-16 1.2446140337064004e-16  9.9999999999999270e-02 -4.2197397860143339e-16 -5.6173308847436805e-16  1.0000000000000002e-01 0.0000000000000000e+00 0.0000000000000000e+00  9.9999999999999034e-02 -4.2983852484298682e-16 -9.1689791627154473e-16  9.9999999999998521e-02 -5.4105059369822378e-16 -6.6899386137735217e-16  9.9999999999997688e-02 -3.2474262108625777e-16 -8.5710520478373705e-16  9.9999999999996841e-02 7.5182542484952879e-17 -8.6814723748010347e-16  9.9999999999997272e-02 -8.5887443276351611e-17 -9.0913186034886477e-16  9.9999999999996522e-02 2.5034164762156439e-16 -7.5409862806755674e-16  9.9999999999999450e-02 -1.0748288164323766e-16 -5.9333846378548629e-16  9.9999999999999353e-02 -2.0675944801985032e-16 -3.8085681360029769e-16  1.0000000000000002e-01 0.0000000000000000e+00 0.0000000000000000e+00  1.0000000000000002e-01 0.0000000000000000e+00 0.0000000000000000e+00  9.9999999999998521e-02 -3.0970036541658691e-16 -8.3923754937822817e-16  9.9999999999997563e-02 -2.4147177373882498e-16 -1.1346035993005893e-15  9.9999999999999312e-02 2.3806475406261371e-17 -9.1906347718193321e-16  9.9999999999999395e-02 -8.5522399254954636e-18 -6.3097096796633226e-16  1.0000000000000002e-01 0.0000000000000000e+00 0.0000000000000000e+00  1.0000000000000002e-01 0.0000000000000000e+00 0.0000000000000000e+00  9.9999999999998673e-02 1.1437929798352440e-16 -1.0826302373781807e-15  9.9999999999999478e-02 6.7799659256874834e-17 -4.7402652717518383e-16  1.0000000000000002e-01 0.0000000000000000e+00 0.0000000000000000e+00  1.0000000000000002e-01 0.0000000000000000e+00 0.0000000000000000e+00  9.9999999999998965e-02 2.8044376880823493e-16 -6.3650688667042276e-16  9.9999999999999353e-02 1.2735132667122687e-16 -3.9234395660072461e-16  1.0000000000000002e-01 0.0000000000000000e+00 0.0000000000000000e+00  9.9999999999999825e-02 -6.7264215220642002e-16 -2.9100291239512056e-16  1.0000000000000002e-01 0.0000000000000000e+00 0.0000000000000000e+00  9.9999999999999992e-02 0.0000000000000000e+00 0.0000000000000000e+00  1.0000000000000002e-01 0.0000000000000000e+00 0.0000000000000000e+00  9.9999999999999825e-02 -6.1655307877827570e-16 -2.1413178900092925e-16  1.0000000000000002e-01 0.0000000000000000e+00 0.0000000000000000e+00  9.9999999999999770e-02 -4.0591144888297514e-16 -3.4894111860295682e-16  1.0000000000000002e-01 0.0000000000000000e+00 0.0000000000000000e+00  9.9999999999999617e-02 -2.9277690050759986e-16 -4.9968531994035836e-16  1.0000000000000002e-01 0.0000000000000000e+00 0.0000000000000000e+00  9.9999999999999367e-02 -2.7796940177997625e-16 -6.3416900163712954e-16  1.0000000000000002e-01 0.0000000000000000e+00 0.0000000000000000e+00  9.9999999999999242e-02 -2.0370900507527520e-16 -5.1994985026535361e-16  1.0000000000000002e-01 0.0000000000000000e+00 0.0000000000000000e+00  9.9999999999999090e-02 -1.5077440678032718e-16 -5.2666490306926349e-16  1.0000000000000002e-01 0.0000000000000000e+00 0.0000000000000000e+00  9.9999999999999117e-02 -1.2878137469598735e-16 -4.7871187023414693e-16  1.0000000000000002e-01 0.0000000000000000e+00 0.0000000000000000e+00  9.9999999999999617e-02 -9.1693745291816248e-16 -2.4480358147281790e-16  1.0000000000000002e-01 0.0000000000000000e+00 0.0000000000000000e+00  9.9999999999999437e-02 -1.0488719107711745e-15 -2.8764864493505456e-16  9.9999999999999201e-02 -8.3248260940659348e-16 -5.2624248990444310e-16  9.9999999999998979e-02 -5.8012581602916903e-16 -6.7411720489262075e-16  9.9999999999998618e-02 -4.2872765243878133e-16 -8.2953311601204289e-16  9.9999999999998243e-02 -1.9052479172186170e-16 -6.2447451450302231e-16  9.9999999999998049e-02 -1.5370706513061337e-16 -5.9080854318401498e-16  9.9999999999998007e-02 -1.8368462357359452e-16 -5.8970231893201405e-16  9.9999999999998007e-02 -1.2534246649926415e-16 -4.9154527066340080e-16  9.9999999999999603e-02 -7.8293726029943558e-16 -9.1234501661287124e-17  1.0000000000000002e-01 0.0000000000000000e+00 0.0000000000000000e+00  9.9999999999999117e-02 -1.1032613684309005e-15 -3.6033141342910768e-16  9.9999999999998646e-02 -9.2270379073095861e-16 -6.1582057271398188e-16  9.9999999999998188e-02 -6.6666089253753884e-16 -6.4767501422534216e-16  9.9999999999997785e-02 -3.8436462686179654e-16 -7.5998767113051299e-16  9.9999999999997355e-02 -6.8994538443688142e-17 -8.8679803911261775e-16  9.9999999999997119e-02 -1.8213973448702381e-16 -5.8019497485778757e-16  9.9999999999997105e-02 -1.5681957417784555e-16 -5.8290655863816188e-16  9.9999999999997077e-02 -3.7475482465115481e-17 -4.3594902476575189e-16  9.9999999999997216e-02 1.8265353679341418e-16 4.6043999183500519e-16  9.9999999999999423e-02 -6.7018724191648635e-16 -5.4371422300228216e-17  1.0000000000000002e-01 0.0000000000000000e+00 0.0000000000000000e+00  9.9999999999998659e-02 -1.0197834728614485e-15 -2.5414736073845691e-16  9.9999999999997924e-02 -7.8307540767539882e-16 -5.0269510857783757e-16  9.9999999999997174e-02 -3.9314633088397318e-16 -6.8445925141660656e-16  9.9999999999996397e-02 -2.7076131556610897e-16 -8.2730140597942199e-16  9.9999999999995801e-02 7.2529507082491826e-18 -9.7823469757892323e-16  9.9999999999995509e-02 -1.7119599302944408e-16 -7.1778202677152248e-16  9.9999999999995287e-02 -3.8491770877975112e-16 -6.6180306164408953e-16  9.9999999999995426e-02 -1.4984809892431095e-16 -4.5482509763137328e-16  9.9999999999995412e-02 -1.1089557025048403e-16 -2.9044865133992744e-17  9.9999999999999464e-02 -4.9961152803111684e-16 -1.9065296454883702e-16  1.0000000000000002e-01 0.0000000000000000e+00 0.0000000000000000e+00  9.9999999999998673e-02 -8.3444595165281301e-16 -2.6201113796355689e-16  9.9999999999997785e-02 -6.3378501231919062e-16 -4.5169261976592759e-16  9.9999999999997008e-02 -2.6680625181501795e-16 -8.8669601454408023e-16  9.9999999999996411e-02 -8.3482774935111478e-17 -9.8681901772976078e-16  9.9999999999995925e-02 2.4472079652004061e-16 -1.0418512939327900e-15  9.9999999999995912e-02 4.7051208967225811e-17 -6.5422525592772838e-16  9.9999999999995676e-02 1.7300608640160222e-16 -5.9708179591411683e-16  9.9999999999995523e-02 -1.7087212776482572e-16 -5.8857975375009470e-16  9.9999999999995273e-02 -1.4495710450061032e-16 -5.2262024990416292e-16  9.9999999999995190e-02 -3.2716952290581553e-16 -5.2860306669760204e-16  9.9999999999994899e-02 -2.0271984024382542e-16 -4.7228681936532108e-16  9.9999999999994912e-02 -3.7121723903768520e-16 -3.6014489569608640e-16  9.9999999999994441e-02 -2.8857163966917715e-16 -5.4834250075296793e-16  9.9999999999999409e-02 -3.5726839274393357e-16 -1.2769249200048739e-16  1.0000000000000002e-01 0.0000000000000000e+00 0.0000000000000000e+00  9.9999999999998632e-02 -5.6677517792871207e-16 -3.2956004956017984e-16  9.9999999999997702e-02 -3.6425252027401995e-16 -5.6667913317161983e-16  9.9999999999997188e-02 8.8545613244529245e-17 -9.1719578545265900e-16  9.9999999999996966e-02 -1.5634746566284446e-17 -8.1857851881337763e-16  9.9999999999996855e-02 5.4652671961102287e-16 -6.0904242157022614e-16  9.9999999999996494e-02 3.0747372520879281e-16 -7.4308424879026056e-16  9.9999999999996439e-02 5.9893870733768808e-16 -6.0106689977173451e-16  9.9999999999996037e-02 5.6779071257212612e-16 -7.5683413133380361e-16  9.9999999999995870e-02 4.9423857985678810e-16 -6.0694060782992307e-16  9.9999999999995676e-02 5.6063763729851369e-16 -4.5647871782800433e-16  9.9999999999995190e-02 9.7082320504757796e-17 -5.0724957449165960e-16  9.9999999999994718e-02 6.7595279315174087e-17 -5.6011719234703053e-16  9.9999999999994343e-02 5.8107784144749178e-17 -3.3759374976793980e-16  9.9999999999994107e-02 -2.6240415236743663e-16 -4.0875480638320844e-16  9.9999999999999492e-02 -1.7911618270999027e-16 -3.4700808955205021e-16  1.0000000000000002e-01 0.0000000000000000e+00 0.0000000000000000e+00  9.9999999999998687e-02 -1.7295806008216976e-16 -6.6201967940575455e-16  9.9999999999998118e-02 2.5688920754545497e-16 -1.1349674029056889e-15  9.9999999999997466e-02 -2.5150622887156836e-17 -8.2072566251012939e-16  9.9999999999996397e-02 -1.2015925692241113e-16 -1.3105985220557324e-15  9.9999999999996161e-02 4.0622432782687559e-16 -7.2943192326518882e-16  9.9999999999995898e-02 8.5270250779199358e-16 -4.0390143000651812e-16  9.9999999999995495e-02 7.0780934493096301e-16 -1.3585729269513046e-16  9.9999999999995176e-02 5.1146531236241276e-16 6.7857661579898361e-17  9.9999999999999534e-02 -7.8425882236945396e-17 -1.5175398460053496e-16  1.0000000000000002e-01 0.0000000000000000e+00 0.0000000000000000e+00  9.9999999999998729e-02 8.9810890407678508e-17 -4.4636778299885670e-16  9.9999999999998465e-02 5.1686948563536893e-16 -8.9341706933808690e-16  9.9999999999997910e-02 4.6119398515110155e-16 -7.0620695685754847e-16  9.9999