<?xml version="1.0"?>
<VTKFile type="UnstructuredGrid"  version="0.1"  >
<UnstructuredGrid>
<Piece  NumberOfPoints="4096" NumberOfCells="20250">
<Points>
<DataArray  type="Float64"  NumberOfComponents="3"  format="ascii">0 0 0  0.1333333333333333 0 0  0.2666666666666667 0 0  0.4 0 0  0.5333333333333333 0 0  0.6666666666666666 0 0  0.8 0 0  0.9333333333333333 0 0  1.066666666666667 0 0  1.2 0 0  1.333333333333333 0 0  1.466666666666667 0 0  1.6 0 0  1.733333333333333 0 0  1.866666666666667 0 0  2 0 0  0 0.1333333333333333 0  0.1333333333333333 0.1333333333333333 0  0.2666666666666667 0.1333333333333333 0  0.4 0.1333333333333333 0  0.5333333333333333 0.1333333333333333 0  0.6666666666666666 0.1333333333333333 0  0.8 0.1333333333333333 0  0.9333333333333333 0.1333333333333333 0  1.066666666666667 0.1333333333333333 0  1.2 0.1333333333333333 0  1.333333333333333 0.1333333333333333 0  1.466666666666667 0.1333333333333333 0  1.6 0.1333333333333333 0  1.733333333333333 0.1333333333333333 0  1.866666666666667 0.1333333333333333 0  2 0.1333333333333333 0  0 0.2666666666666667 0  0.1333333333333333 0.2666666666666667 0  0.2666666666666667 0.2666666666666667 0  0.4 0.2666666666666667 0  0.5333333333333333 0.2666666666666667 0  0.6666666666666666 0.2666666666666667 0  0.8 0.2666666666666667 0  0.9333333333333333 0.2666666666666667 0  1.066666666666667 0.2666666666666667 0  1.2 0.2666666666666667 0  1.333333333333333 0.2666666666666667 0  1.466666666666667 0.2666666666666667 0  1.6 0.2666666666666667 0  1.733333333333333 0.2666666666666667 0  1.866666666666667 0.2666666666666667 0  2 0.2666666666666667 0  0 0.4 0  0.1333333333333333 0.4 0  0.2666666666666667 0.4 0  0.4 0.4 0  0.5333333333333333 0.4 0  0.6666666666666666 0.4 0  0.8 0.4 0  0.9333333333333333 0.4 0  1.066666666666667 0.4 0  1.2 0.4 0  1.333333333333333 0.4 0  1.466666666666667 0.4 0  1.6 0.4 0  1.733333333333333 0.4 0  1.866666666666667 0.4 0  2 0.4 0  0 0.5333333333333333 0  0.1333333333333333 0.5333333333333333 0  0.2666666666666667 0.5333333333333333 0  0.4 0.5333333333333333 0  0.5333333333333333 0.5333333333333333 0  0.6666666666666666 0.5333333333333333 0  0.8 0.5333333333333333 0  0.9333333333333333 0.5333333333333333 0  1.066666666666667 0.5333333333333333 0  1.2 0.5333333333333333 0  1.333333333333333 0.5333333333333333 0  1.466666666666667 0.5333333333333333 0  1.6 0.5333333333333333 0  1.733333333333333 0.5333333333333333 0  1.866666666666667 0.5333333333333333 0  2 0.5333333333333333 0  0 0.6666666666666666 0  0.1333333333333333 0.6666666666666666 0  0.2666666666666667 0.6666666666666666 0  0.4 0.6666666666666666 0  0.5333333333333333 0.6666666666666666 0  0.6666666666666666 0.6666666666666666 0  0.8 0.6666666666666666 0  0.9333333333333333 0.6666666666666666 0  1.066666666666667 0.6666666666666666 0  1.2 0.6666666666666666 0  1.333333333333333 0.6666666666666666 0  1.466666666666667 0.6666666666666666 0  1.6 0.6666666666666666 0  1.733333333333333 0.6666666666666666 0  1.866666666666667 0.6666666666666666 0  2 0.6666666666666666 0  0 0.8 0  0.1333333333333333 0.8 0  0.2666666666666667 0.8 0  0.4 0.8 0  0.5333333333333333 0.8 0  0.6666666666666666 0.8 0  0.8 0.8 0  0.9333333333333333 0.8 0  1.066666666666667 0.8 0  1.2 0.8 0  1.333333333333333 0.8 0  1.466666666666667 0.8 0  1.6 0.8 0  1.733333333333333 0.8 0  1.866666666666667 0.8 0  2 0.8 0  0 0.9333333333333333 0  0.1333333333333333 0.9333333333333333 0  0.2666666666666667 0.9333333333333333 0  0.4 0.9333333333333333 0  0.5333333333333333 0.9333333333333333 0  0.6666666666666666 0.9333333333333333 0  0.8 0.9333333333333333 0  0.9333333333333333 0.9333333333333333 0  1.066666666666667 0.9333333333333333 0  1.2 0.9333333333333333 0  1.333333333333333 0.9333333333333333 0  1.466666666666667 0.9333333333333333 0  1.6 0.9333333333333333 0  1.733333333333333 0.9333333333333333 0  1.866666666666667 0.9333333333333333 0  2 0.9333333333333333 0  0 1.066666666666667 0  0.1333333333333333 1.066666666666667 0  0.2666666666666667 1.066666666666667 0  0.4 1.066666666666667 0  0.5333333333333333 1.066666666666667 0  0.6666666666666666 1.066666666666667 0  0.8 1.066666666666667 0  0.9333333333333333 1.066666666666667 0  1.066666666666667 1.066666666666667 0  1.2 1.066666666666667 0  1.333333333333333 1.066666666666667 0  1.466666666666667 1.066666666666667 0  1.6 1.066666666666667 0  1.733333333333333 1.066666666666667 0  1.866666666666667 1.066666666666667 0  2 1.066666666666667 0  0 1.2 0  0.1333333333333333 1.2 0  0.2666666666666667 1.2 0  0.4 1.2 0  0.5333333333333333 1.2 0  0.6666666666666666 1.2 0  0.8 1.2 0  0.9333333333333333 1.2 0  1.066666666666667 1.2 0  1.2 1.2 0  1.333333333333333 1.2 0  1.466666666666667 1.2 0  1.6 1.2 0  1.733333333333333 1.2 0  1.866666666666667 1.2 0  2 1.2 0  0 1.333333333333333 0  0.1333333333333333 1.333333333333333 0  0.2666666666666667 1.333333333333333 0  0.4 1.333333333333333 0  0.5333333333333333 1.333333333333333 0  0.6666666666666666 1.333333333333333 0  0.8 1.333333333333333 0  0.9333333333333333 1.333333333333333 0  1.066666666666667 1.333333333333333 0  1.2 1.333333333333333 0  1.333333333333333 1.333333333333333 0  1.466666666666667 1.333333333333333 0  1.6 1.333333333333333 0  1.733333333333333 1.333333333333333 0  1.866666666666667 1.333333333333333 0  2 1.333333333333333 0  0 1.466666666666667 0  0.1333333333333333 1.466666666666667 0  0.2666666666666667 1.466666666666667 0  0.4 1.466666666666667 0  0.5333333333333333 1.466666666666667 0  0.6666666666666666 1.466666666666667 0  0.8 1.466666666666667 0  0.9333333333333333 1.466666666666667 0  1.066666666666667 1.466666666666667 0  1.2 1.466666666666667 0  1.333333333333333 1.466666666666667 0  1.466666666666667 1.466666666666667 0  1.6 1.466666666666667 0  1.733333333333333 1.466666666666667 0  1.866666666666667 1.466666666666667 0  2 1.466666666666667 0  0 1.6 0  0.1333333333333333 1.6 0  0.2666666666666667 1.6 0  0.4 1.6 0  0.5333333333333333 1.6 0  0.6666666666666666 1.6 0  0.8 1.6 0  0.9333333333333333 1.6 0  1.066666666666667 1.6 0  1.2 1.6 0  1.333333333333333 1.6 0  1.466666666666667 1.6 0  1.6 1.6 0  1.733333333333333 1.6 0  1.866666666666667 1.6 0  2 1.6 0  0 1.733333333333333 0  0.1333333333333333 1.733333333333333 0  0.2666666666666667 1.733333333333333 0  0.4 1.733333333333333 0  0.5333333333333333 1.733333333333333 0  0.6666666666666666 1.733333333333333 0  0.8 1.733333333333333 0  0.9333333333333333 1.733333333333333 0  1.066666666666667 1.733333333333333 0  1.2 1.733333333333333 0  1.333333333333333 1.733333333333333 0  1.466666666666667 1.733333333333333 0  1.6 1.733333333333333 0  1.733333333333333 1.733333333333333 0  1.866666666666667 1.733333333333333 0  2 1.733333333333333 0  0 1.866666666666667 0  0.1333333333333333 1.866666666666667 0  0.2666666666666667 1.866666666666667 0  0.4 1.866666666666667 0  0.5333333333333333 1.866666666666667 0  0.6666666666666666 1.866666666666667 0  0.8 1.866666666666667 0  0.9333333333333333 1.866666666666667 0  1.066666666666667 1.866666666666667 0  1.2 1.866666666666667 0  1.333333333333333 1.866666666666667 0  1.466666666666667 1.866666666666667 0  1.6 1.866666666666667 0  1.733333333333333 1.866666666666667 0  1.866666666666667 1.866666666666667 0  2 1.866666666666667 0  0 2 0  0.1333333333333333 2 0  0.2666666666666667 2 0  0.4 2 0  0.5333333333333333 2 0  0.6666666666666666 2 0  0.8 2 0  0.9333333333333333 2 0  1.066666666666667 2 0  1.2 2 0  1.333333333333333 2 0  1.466666666666667 2 0  1.6 2 0  1.733333333333333 2 0  1.866666666666667 2 0  2 2 0  0 0 0.06666666666666667  0.1333333333333333 0 0.06666666666666667  0.2666666666666667 0 0.06666666666666667  0.4 0 0.06666666666666667  0.5333333333333333 0 0.06666666666666667  0.6666666666666666 0 0.06666666666666667  0.8 0 0.06666666666666667  0.9333333333333333 0 0.06666666666666667  1.066666666666667 0 0.06666666666666667  1.2 0 0.06666666666666667  1.333333333333333 0 0.06666666666666667  1.466666666666667 0 0.06666666666666667  1.6 0 0.06666666666666667  1.733333333333333 0 0.06666666666666667  1.866666666666667 0 0.06666666666666667  2 0 0.06666666666666667  0 0.1333333333333333 0.06666666666666667  0.1333333333333333 0.1333333333333333 0.06666666666666667  0.2666666666666667 0.1333333333333333 0.06666666666666667  0.4 0.1333333333333333 0.06666666666666667  0.5333333333333333 0.1333333333333333 0.06666666666666667  0.6666666666666666 0.1333333333333333 0.06666666666666667  0.8 0.1333333333333333 0.06666666666666667  0.9333333333333333 0.1333333333333333 0.06666666666666667  1.066666666666667 0.1333333333333333 0.06666666666666667  1.2 0.1333333333333333 0.06666666666666667  1.333333333333333 0.1333333333333333 0.06666666666666667  1.466666666666667 0.1333333333333333 0.06666666666666667  1.6 0.1333333333333333 0.06666666666666667  1.733333333333333 0.1333333333333333 0.06666666666666667  1.866666666666667 0.1333333333333333 0.06666666666666667  2 0.1333333333333333 0.06666666666666667  0 0.2666666666666667 0.06666666666666667  0.1333333333333333 0.2666666666666667 0.06666666666666667  0.2666666666666667 0.2666666666666667 0.06666666666666667  0.4 0.2666666666666667 0.06666666666666667  0.5333333333333333 0.2666666666666667 0.06666666666666667  0.6666666666666666 0.2666666666666667 0.06666666666666667  0.8 0.2666666666666667 0.06666666666666667  0.9333333333333333 0.2666666666666667 0.06666666666666667  1.066666666666667 0.2666666666666667 0.06666666666666667  1.2 0.2666666666666667 0.06666666666666667  1.333333333333333 0.2666666666666667 0.06666666666666667  1.466666666666667 0.2666666666666667 0.06666666666666667  1.6 0.2666666666666667 0.06666666666666667  1.733333333333333 0.2666666666666667 0.06666666666666667  1.866666666666667 0.2666666666666667 0.06666666666666667  2 0.2666666666666667 0.06666666666666667  0 0.4 0.06666666666666667  0.1333333333333333 0.4 0.06666666666666667  0.2666666666666667 0.4 0.06666666666666667  0.4 0.4 0.06666666666666667  0.5333333333333333 0.4 0.06666666666666667  
[...]
<PointData  Vectors="f_19"> 
<DataArray  type="Float64"  Name="f_19"  NumberOfComponents="3" format="ascii">-1.0000000000000001e-01 0.0000000000000000e+00 0.0000000000000000e+00  -9.1484211571640606e-02 1.1366909199325315e-02 8.7098670510970498e-03  -8.4539709245620751e-02 1.7265039267633030e-02 1.1635349061034190e-02  -7.7867484871602721e-02 2.1069111103995015e-02 1.2751949940784105e-02  -7.1152941321742658e-02 2.3612169026685309e-02 1.3170420147859170e-02  -6.4307067189417116e-02 2.5264133844679862e-02 1.3317389435928384e-02  -5.7323388907251513e-02 2.6225110254773563e-02 1.3372972878956111e-02  -5.0230699903365726e-02 2.6603272158630845e-02 1.3407962471146088e-02  -4.3073468835764163e-02 2.6444763432036979e-02 1.3434631499844207e-02  -3.5902235865244922e-02 2.5747133854467273e-02 1.3422737557504182e-02  -2.8768767371884753e-02 2.4464184382127652e-02 1.3296906569124073e-02  -2.1727745468972378e-02 2.2501432903083578e-02 1.2918980450147124e-02  -1.4858126305194881e-02 1.9691221224099918e-02 1.2049531607808609e-02  -8.3497504519064632e-03 1.5708178242296034e-02 1.0265748582159253e-02  -2.7989215418726863e-03 9.7946769536339049e-03 6.7717480626581453e-03  0.0000000000000000e+00 0.0000000000000000e+00 0.0000000000000000e+00  -1.0000000000000001e-01 0.0000000000000000e+00 0.0000000000000000e+00  -9.4065824791384062e-02 7.8987677867728926e-03 9.0888235493341643e-03  -8.6974370601198225e-02 1.3970372679470143e-02 1.1790828609485771e-02  -7.9956452073298503e-02 1.7864567457789880e-02 1.2998587752387693e-02  -7.2835843752900239e-02 2.0418309748885883e-02 1.3494960482389446e-02  -6.5566306875179406e-02 2.2053473224925544e-02 1.3683002882574666e-02  -5.8164995244330886e-02 2.2997146668549243e-02 1.3750707235170252e-02  -5.0674616296087008e-02 2.3372025429484595e-02 1.3777927174301171e-02  -4.3150759963074936e-02 2.3232454031733584e-02 1.3782909688055374e-02  -3.5658681733434831e-02 2.2580561605857891e-02 1.3738411458693998e-02  -2.8274303134492456e-02 2.1372874550758203e-02 1.3570140556693146e-02  -2.1090182409730249e-02 1.9519226471468060e-02 1.3140352119034545e-02  -1.4234854796149788e-02 1.6869475284739390e-02 1.2210863507873719e-02  -7.9337456444373653e-03 1.3170470902301588e-02 1.0364293927579454e-02  -2.7043428441625716e-03 7.9328728438397451e-03 6.8229368599375178e-03  0.0000000000000000e+00 0.0000000000000000e+00 0.0000000000000000e+00  -1.0000000000000001e-01 0.0000000000000000e+00 0.0000000000000000e+00  -9.4546832808890716e-02 6.0228731060534722e-03 8.7836212982642103e-03  -8.8432455636614407e-02 1.0821734780932261e-02 1.2553483039834456e-02  -8.1464477202362787e-02 1.4561583965203944e-02 1.3594567124381141e-02  -7.4159463075147425e-02 1.7065123657676092e-02 1.4028343488791166e-02  -6.6622610615803657e-02 1.8668005521022733e-02 1.4185227503010772e-02  -5.8926519184582360e-02 1.9598272685607446e-02 1.4231792715284842e-02  -5.1142861112874853e-02 1.9985513087494414e-02 1.4241716486369588e-02  -4.3346369319581982e-02 1.9890552528883599e-02 1.4230919475702826e-02  -3.5618537744211434e-02 1.9322163518161850e-02 1.4170357556120753e-02  -2.8052507806745286e-02 1.8245028910634477e-02 1.3983523653319306e-02  -2.0760839059581558e-02 1.6581364322800777e-02 1.3529753405221241e-02  -1.3893156636645030e-02 1.4205016409641131e-02 1.2566935321224918e-02  -7.6864696156466921e-03 1.0920868051267085e-02 1.0671470902566487e-02  -2.6253905076471023e-03 6.4042723416693915e-03 7.0473126272911912e-03  0.0000000000000000e+00 0.0000000000000000e+00 0.0000000000000000e+00  -1.0000000000000001e-01 0.0000000000000000e+00 0.0000000000000000e+00  -9.4696840525795259e-02 4.6092606333187017e-03 8.7772891800702423e-03  -8.8949456683157110e-02 8.3356899026246246e-03 1.2672073309823558e-02  -8.2403429156756136e-02 1.1363188227366126e-02 1.4239972964488116e-02  -7.5133281739504676e-02 1.3653134565204224e-02 1.4620971606175164e-02  -6.7473646791945022e-02 1.5171493898761565e-02 1.4727599821012224e-02  -5.9588693425348969e-02 1.6075042054896370e-02 1.4737791135394791e-02  -5.1594419533424592e-02 1.6480313284119415e-02 1.4722679801619464e-02  -4.3592262627333844e-02 1.6448357144396509e-02 1.4695013848641914e-02  -3.5682987812465983e-02 1.5993158798377701e-02 1.4622482818841685e-02  -2.7975859551370504e-02 1.5088576072795529e-02 1.4424727002075697e-02  -2.0597979327007413e-02 1.3671465917546163e-02 1.3955899818856744e-02  -1.3710793736661587e-02 1.1640587854171550e-02 1.2965994783431935e-02  -7.5540998916264705e-03 8.8493095786674088e-03 1.1017596608923147e-02  -2.5869569038493713e-03 5.0850459250601663e-03 7.2857484736989168e-03  0.0000000000000000e+00 0.0000000000000000e+00 0.0000000000000000e+00  -1.0000000000000001e-01 0.0000000000000000e+00 0.0000000000000000e+00  -9.4755208807542318e-02 3.4045857197966736e-03 8.8401811781344611e-03  -8.9174818010276338e-02 6.1807814361004914e-03 1.2792187319370572e-02  -8.2850329877304452e-02 8.4802895565206701e-03 1.4503900721460265e-02  -7.5770287715656109e-02 1.0305607326698978e-02 1.5124346728772860e-02  -6.8114324816325442e-02 1.1637448908515690e-02 1.5222177268694560e-02  -6.0135780638361273e-02 1.2475787847974835e-02 1.5206959017123373e-02  -5.2003865780651984e-02 1.2890588798551518e-02 1.5170111184405720e-02  -4.3852425395961715e-02 1.2930604118804463e-02 1.5127365374562766e-02  -3.5804349664074253e-02 1.2610193922636731e-02 1.5044901516202178e-02  -2.7985513493786817e-02 1.1910610453569873e-02 1.4838742523151750e-02  -2.0535794825093771e-02 1.0782626128322733e-02 1.4357336589728681e-02  -1.3624785091774004e-02 9.1480946189851763e-03 1.3341731302933164e-02  -7.4913171572875831e-03 6.9004081859082361e-03 1.1339732795690564e-02  -2.5727163105576747e-03 3.9052328306734552e-03 7.5003319697094428e-03  0.0000000000000000e+00 0.0000000000000000e+00 0.0000000000000000e+00  -1.0000000000000001e-01 0.0000000000000000e+00 0.0000000000000000e+00  -9.4781012299294809e-02 2.3152690798399545e-03 8.9012220950402780e-03  -8.9289721097104272e-02 4.2065755810283476e-03 1.2886880400224935e-02  -8.3087104102295292e-02 5.8014522251954555e-03 1.4665363105366777e-02  -7.6133399279097708e-02 7.1144590270386275e-03 1.5385021567456775e-02  -6.8559191996071397e-02 8.1350408812416314e-03 1.5597213604686740e-02  -6.0564018066313834e-02 8.8469059059674438e-03 1.5589580859217911e-02  -5.2357370372495021e-02 9.2472578002590917e-03 1.5545726708337784e-02  -4.4105370461170357e-02 9.3574214525444874e-03 1.5495450582809303e-02  -3.5954234096473359e-02 9.1847332892453070e-03 1.5407422387395224e-02  -2.8047030468815497e-02 8.7140417862867810e-03 1.5195661997035259e-02  -2.0536039472931943e-02 7.9074516858820450e-03 1.4703682053353413e-02  -1.3597842263361568e-02 6.7065065987891512e-03 1.3664366617418676e-02  -7.4696028911817947e-03 5.0366053419946795e-03 1.1612742528039026e-02  -2.5715208231540487e-03 2.8182064042874475e-03 7.6777687754620771e-03  0.0000000000000000e+00 0.0000000000000000e+00 0.0000000000000000e+00  -1.0000000000000001e-01 0.0000000000000000e+00 0.0000000000000000e+00  -9.4795340569105893e-02 1.2919914293630817e-03 8.9346432148853638e-03  -8.9356606745522427e-02 2.3353676940117800e-03 1.2934664979635939e-02  -8.3227659572720422e-02 3.2461406816999805e-03 1.4745498060373971e-02  -7.6357228312401909e-02 4.0392062130797405e-03 1.5518243698557109e-02  -6.8854784678491127e-02 4.7038293112564074e-03 1.5793768486577816e-02  -6.0888978956252851e-02 5.2235624900406688e-03 1.5848221999206501e-02  -5.2656004853654126e-02 5.5744195602844991e-03 1.5819511907791101e-02  -4.4343259384096327e-02 5.7429641008482782e-03 1.5774409359524247e-02  -3.6118171054703073e-02 5.7224592145285833e-03 1.5688763515781440e-02  -2.8140824065780397e-02 5.4966576846222056e-03 1.5476768065754610e-02  -2.0576004784337049e-02 5.0353827760530158e-03 1.4978366919835603e-02  -1.3607442255461337e-02 4.2956903141837350e-03 1.3919874648775537e-02  -7.4716480175175889e-03 3.2276520089034419e-03 1.1826548300022995e-02  -2.5765953253283121e-03 1.7900542210020787e-03 7.8136820553169235e-03  0.0000000000000000e+00 0.0000000000000000e+00 0.0000000000000000e+00  -1.0000000000000001e-01 0.0000000000000000e+00 0.0000000000000000e+00  -9.4806726528048807e-02 3.0139337325074174e-04 8.9300687994473306e-03  -8.9400326085568083e-02 5.1769812925102289e-04 1.2924206461664233e-02  -8.3319581683646005e-02 7.6083418368699308e-04 1.4746153993783252e-02  -7.6509593371744997e-02 1.0376947479815862e-03 1.5546641149528218e-02  -6.9069246077965427e-02 1.3303334449303148e-03 1.5860248821654887e-02  -6.1149378940405591e-02 1.6183550484665315e-03 1.5955674924631812e-02  -5.2918518077585047e-02 1.8846652205906863e-03 1.5968547892008973e-02  -4.4573673467220028e-02 2.0931906208568798e-03 1.5943837864692494e-02  -3.6295531004481719e-02 2.2222775998930388e-03 1.5871738669735205e-02  -2.8259934756306230e-02 2.2506190397149298e-03 1.5668246603093478e-02  -2.0644470984019343e-02 2.1519312578320562e-03 1.5170919587292856e-02  -1.3640993159598032e-02 1.8944463407983667e-03 1.4101069063177908e-02  -7.4873474581124708e-03 1.4465179628951285e-03 1.1977199200692732e-02  -2.5839567211365880e-03 7.9393192279120033e-04 7.9069762115020897e-03  0.0000000000000000e+00 0.0000000000000000e+00 0.0000000000000000e+00  -1.0000000000000001e-01 0.0000000000000000e+00 0.0000000000000000e+00  -9.4817681219555444e-02 -6.8411668311028830e-04 8.8828968260958180e-03  -8.9429619516808181e-02 -1.2837941278300163e-03 1.2849704694625581e-02  -8.3381597289273829e-02 -1.6930259226557761e-03 1.4666729833591127e-02  -7.6620843180185652e-02 -1.9224053444859899e-03 1.5478754101124934e-02  -6.9240715337029968e-02 -2.0041940078710887e-03 1.5813493138689749e-02  -6.1379780815412135e-02 -1.9672917159965770e-03 1.5934090585162021e-02  -5.3187963973885297e-02 -1.8289841518501421e-03 1.5973633372476852e-02  -4.4822878776208400e-02 -1.5969568133140694e-03 1.5985907733460692e-02  -3.6502253555495273e-02 -1.3255830024072582e-03 1.5940428408310253e-02  -2.8411231064331185e-02 -1.0386797443958855e-03 1.5757835722598569e-02  -2.0741233367614697e-02 -7.6211521010844578e-04 1.5273308445384460e-02  -1.3694143975591282e-02 -5.2059972883011676e-04 1.4203835731677297e-02  -7.5118454544086154e-03 -3.3280485252707879e-04 1.2063447557229824e-02  -2.5914486262592984e-03 -1.9325204356316096e-04 7.9577488963301149e-03  0.0000000000000000e+00 0.0000000000000000e+00 0.0000000000000000e+00  -1.0000000000000001e-01 0.0000000000000000e+00 0.0000000000000000e+00  -9.4826578938599915e-02 -1.6915840396609589e-03 8.7909322283466155e-03  -8.9443602157098206e-02 -3.1014162368497547e-03 1.2708438617125437e-02  -8.3416645154569424e-02 -4.1454919206218273e-03 1.4507436105098944e-02  -7.6699935217104040e-02 -4.8646683309171816e-03 1.5319919597482440e-02  -6.9384173192969592e-02 -5.3132818367564614e-03 1.5664072402018895e-02  -6.1598604846966540e-02 -5.5340658352888913e-03 1.5796906080904356e-02  -5.3477974689218340e-02 -5.5494425930518419e-03 1.5849055999759786e-02  -4.5156517537845296e-02 -5.3585871796806850e-03 1.5877125972465014e-02  -3.6778330391944523e-02 -4.9434093531547998e-03 1.5877157971753347e-02  -2.8620754100762143e-02 -4.3955148886592075e-03 1.5731959368999987e-02  -2.0879777654611950e-02 -3.7325313145118964e-03 1.5277748336781508e-02  -1.3771351352576735e-02 -2.9764005372402880e-03 1.4225744566234964e-02  -7.5450610244644795e-03 -2.1370888672125558e-03 1.2086028707215151e-02  -2.5983904286807709e-03 -1.1932335140499880e-03 7.9670208661293453e-03  0.0000000000000000e+00 0.0000000000000000e+00 0.0000000000000000e+00  -1.0000000000000001e-01 0.0000000000000000e+00 0.0000000000000000e+00  -9.4827635052023865e-02 -2.7512848548413562e-03 8.6535462214300026e-03  -8.9433241075237424e-02 -4.9659829776117362e-03 1.2500422877684948e-02  -8.3416195175735050e-02 -6.6211716418281665e-03 1.4270923173091190e-02  -7.6741382488769896e-02 -7.8055264228350059e-03 1.5076487975356562e-02  -6.9498081591414393e-02 -8.6036943251301071e-03 1.5422169159550043e-02  -6.1807598399590477e-02 -9.0772617295710057e-03 1.5557372450338142e-02  -5.3792057347259739e-02 -9.2588706909869974e-03 1.5609332158738012e-02  -4.5567104005815900e-02 -9.1479257390902728e-03 1.5635768094925642e-02  -3.7244921983603109e-02 -8.7062510009420415e-03 1.5641445142226502e-02  -2.8949793508042675e-02 -7.8621458091886129e-03 1.5570591331210491e-02  -2.1096224030540827e-02 -6.7966770477376039e-03 1.5173846638148969e-02  -1.3889453822346763e-02 -5.5061293414887871e-03 1.4165665739560695e-02  -7.5924775268112589e-03 -3.9958900810328768e-03 1.2048861301164645e-02  -2.6056175644669538e-03 -2.2285757606672332e-03 7.9379241166852091e-03  0.0000000000000000e+00 0.0000000000000000e+00 0.0000000000000000e+00  -1.0000000000000001e-01 0.0000000000000000e+00 0.0000000000000000e+00  -9.4809053748634645e-02 -3.9001412060862780e-03 8.4726202242476536e-03  -8.9379815703921880e-02 -6.9082904227187169e-03 1.2230302348885731e-02  -8.3360482325342281e-02 -9.1399972119875633e-03 1.3965045726310663e-02  -7.6727573059468007e-02 -1.0754886309705511e-02 1.4759224397745557e-02  -6.9567970220131420e-02 -1.1875581312999159e-02 1.5101191549172856e-02  -6.1994943702260656e-02 -1.2586092249013388e-02 1.5231506734385811e-02  -5.4119605054785275e-02 -1.2932970205764604e-02 1.5273151476750846e-02  -4.6043351720262887e-02 -1.2922907128910335e-02 1.5283125497417373e-02  -3.7857141459570059e-02 -1.2515229991744018e-02 1.5270276898224159e-02  -2.9642238436058906e-02 -1.1607360962380884e-02 1.5193620721484259e-02  -2.1479602545331319e-02 -1.0020454536688378e-02 1.4940375906824345e-02  -1.4089300429133185e-02 -8.1560517443305426e-03 1.4022612151397834e-02  -7.6678844411887234e-03 -5.9443081823306269e-03 1.1962573319716069e-02  -2.6158701601881494e-03 -3.3251276407234532e-03 7.8792250621020545e-03  0.0000000000000000e+00 0.0000000000000000e+00 0.0000000000000000e+00  -1.0000000000000001e-01 0.0000000000000000e+00 0.0000000000000000e+00  -9.4747247995082023e-02 -5.1844040712278328e-03 8.2562536687342727e-03  -8.9248939263395916e-02 -8.9576578659899889e-03 1.1913275720051790e-02  -8.3214876243272673e-02 -1.1715360632372364e-02 1.3608938838265338e-02  -7.6627791225463135e-02 -1.3715345154925554e-02 1.4388346905109223e-02  -6.9567546612121250e-02 -1.5122718931460812e-02 1.4721445425019800e-02  -6.2137592685990513e-02 -1.6044659984780170e-02 1.4840326187335828e-02  -5.4438738870698576e-02 -1.6543022700992213e-02 1.4863896975179407e-02  -4.6561514984108321e-02 -1.6635890042368359e-02 1.4847389724844982e-02  -3.8583953385065400e-02 -1.6291282473416026e-02 1.4800172750114825e-02  -3.0567351689591959e-02 -1.5409897397339599e-02 1.4686087368183619e-02  -2.2542753107462180e-02 -1.3784029831903032e-02 1.4409823977499672e-02  -1.4483022401566780e-02 -1.1012257859502375e-02 1.3786798094683403e-02  -7.8016093260566775e-03 -8.0275241773087903e-03 1.1851854779578560e-02  -2.6342916083482459e-03 -4.5148185038779987e-03 7.8147289507994010e-03  0.0000000000000000e+00 0.0000000000000000e+00 0.0000000000000000e+00  -1.0000000000000001e-01 0.0000000000000000e+00 0.0000000000000000e+00  -9.4590087565746939e-02 -6.6575336268569919e-03 8.0297342682468745e-03  -8.8974215149528260e-02 -1.1133192373006277e-02 1.1591239327799065e-02  -8.2919114650738715e-02 -1.4348001111558248e-02 1.3246695894128557e-02  -7.6392288555263782e-02 -1.6679612835981305e-02 1.4002550186964047e-02  -6.9456475888471203e-02 -1.8332187207423998e-02 1.4315226225113825e-02  -6.2201911935101058e-02 -1.9433172084552575e-02 1.4411994713464956e-02  -5.4719241907211308e-02 -2.0058778423647471e-02 1.4409265422472343e-02  -4.7090850182323417e-02 -2.0239529177760122e-02 1.4360552746940765e-02  -3.9387835511029985e-02 -1.9956925436649203e-02 1.4274196924271534e-02  -3.1665041344927966e-02 -1.9130528840167301e-02 1.4113750814916485e-02  -2.3946123090480335e-02 -1.7583383051124668e-02 1.3783981404466001e-02  -1.6179034342575779e-02 -1.4941238812529489e-02 1.3101604643249576e-02  -8.0838175376924705e-03 -1.0316143552590994e-02 1.1768118542910828e-02  -2.6655334400044199e-03 -5.8341024299284998e-03 7.8119783390723316e-03  0.0000000000000000e+00 0.0000000000000000e+00 0.0000000000000000e+00  -1.0000000000000001e-01 0.0000000000000000e+00 0.0000000000000000e+00  -9.4222126813885157e-02 -8.3507442545707657e-03 7.8767730793232217e-03  -8.8429620805161605e-02 -1.3418169789217678e-02 1.1380585544108821e-02  -8.2366394943973603e-02 -1.7015818371944255e-02 1.2977755612793242e-02  -7.5937439665658080e-02 -1.9626093188064631e-02 1.3675256285715654e-02  -6.9171732071863140e-02 -2.1481774454993947e-02 1.3934989316204242e-02  -6.2140913380277746e-02 -2.2726494146761672e-02 1.3985363224004734e-02  -5.4925064203859654e-02 -2.3448729886308875e-02 1.3941189763455313e-02  -4.7601004922003837e-02 -2.3690084694958324e-02 1.3854115881423283e-02  -4.0238053772869008e-02 -2.3445172148208626e-02 1.3731755104743656e-02  -3.2893106110332374e-02 -2.2654938370651377e-02 1.3538093498002397e-02  -2.5598421308614564e-02 -2.1186446152949921e-02 1.3177185150294672e-02  -1.8331452482849828e-02 -1.8770710407435796e-02 1.2452806027388344e-02  -1.0929295411348895e-02 -1.4780378082055266e-02 1.0982529718155080e-02  -2.6666151962732314e-03 -7.2457117312325695e-03 8.1119876398972404e-03  0.0000000000000000e+00 0.0000000000000000e+00 0.0000000000000000e+00  -1.0000000000000001e-01 0.0000000000000000e+00 0.0000000000000000e+00  -9.3839511209223264e-02 -1.0239886900126076e-02 8.1098639504139734e-03  -8.7602912332902808e-02 -1.5804686112925740e-02 1.1582451848587205e-02  -8.1459730035037439e-02 -1.9698544609831975e-02 1.3009720346209569e-02  -7.5156364793660252e-02 -2.2521129019097870e-02 1.3541207562581460e-02  -6.8626662120398210e-02 -2.4530036227278118e-02 1.3669915999910048e-02  -6.1895366300474028e-02 -2.5879324434449128e-02 1.3622472201917261e-02  -5.5021849100668041e-02 -2.6664565475322293e-02 1.3505048605909911e-02  -4.8076756643014459e-02 -2.6934048673176621e-02 1.3362919656940158e-02  -4.1132182179810746e-02 -2.6691437875680457e-02 1.3202577243641182e-02  -3.4254726031389959e-02 -2.5894497073344708e-02 1.2992884512047683e-02  -2.7494588577334899e-02 -2.4447330489734669e-02 1.2648954188522753e-02  -2.0864151430021953e-02 -2.2171376441863750e-02 1.1991916892469676e-02  -1.4299589597229141e-02 -1.8694012319048936e-02 1.0648964331988517e-02  -7.6069226977290502e-03 -1.2952572960136820e-02 7.7066845818444260e-03  0.0000000000000000e+00 0.0000000000000000e+00 0.0000000000000000e+00  -1.0000000000000001e-01 0.0000000000000000e+00 0.0000000000000000e+00  -9.2928855974890992e-02 1.2270155851639679e-02 6.9016428061533458e-03  -8.5358937407925842e-02 1.7490633829266963e-02 9.9811318736738684e-03  -7.8330772782542649e-02 2.1092242164721848e-02 1.1130645213691977e-02  -7.1422150878917165e-02 2.3540316913999857e-02 1.1530794077702163e-02  -6.4472312505233442e-02 2.5146710962986773e-02 1.1644819676273064e-02  -5.7431538585900783e-02 2.6091921494200872e-02 1.1667339923135822e-02  -5.0301454931878674e-02 2.6474573642937520e-02 1.1675235539665678e-02  -4.3108721849328846e-02 2.6335698503327332e-02 1.1683799422458410e-02  -3.5892330835399354e-02 2.5669737954038898e-02 1.1665137927820930e-02  -2.8698631307728699e-02 2.4427227271853681e-02 1.1547562275248417e-02  -2.1585934579077534e-02 2.2507446165167717e-02 1.1201569518286356e-02  -1.4651664141856716e-02 1.9729630158432043e-02 1.0410031135210069e-02  -8.1241331100171017e-03 1.5745410403126568e-02 8.8079905711720922e-03  -2.6490270092045390e-03 9.7773206451421384e-03 5.7464860812768545e-03  0.0000000000000000e+00 0.0000000000000000e+00 0.0000000000000000e+00  -1.0000000000000001e-01 0.0000000000000000e+00 0.0000000000000000e+00  -9.6628525154138889e-02 7.7125309850821213e-03 6.7375747326727234e-03  -8.8055421430283387e-02 1.4024273986112893e-02 1.0055880351185591e-02  -8.0525455870707863e-02 1.7823496692106248e-02 1.1321948718197880e-02  -7.3152950998084457e-02 2.0315251170174013e-02 1.1797191302016029e-02  -6.5754102041421389e-02 2.1918353149563780e-02 1.1949388760782498e-02  -5.8285910059655707e-02 2.2850285005913025e-02 1.1983288694