<?xml version="1.0"?>
<VTKFile type="UnstructuredGrid"  version="0.1"  >
<UnstructuredGrid>
<Piece  NumberOfPoints="484" NumberOfCells="882">
<Points>
<DataArray  type="Float64"  NumberOfComponents="3"  format="ascii">0 0 0  0.04761904761904762 0 0  0.09523809523809523 0 0  0.1428571428571428 0 0  0.1904761904761905 0 0  0.2380952380952381 0 0  0.2857142857142857 0 0  0.3333333333333333 0 0  0.3809523809523809 0 0  0.4285714285714285 0 0  0.4761904761904762 0 0  0.5238095238095238 0 0  0.5714285714285714 0 0  0.6190476190476191 0 0  0.6666666666666666 0 0  0.7142857142857143 0 0  0.7619047619047619 0 0  0.8095238095238095 0 0  0.8571428571428571 0 0  0.9047619047619048 0 0  0.9523809523809523 0 0  1 0 0  0 0.04761904761904762 0  0.04761904761904762 0.04761904761904762 0  0.09523809523809523 0.04761904761904762 0  0.1428571428571428 0.04761904761904762 0  0.1904761904761905 0.04761904761904762 0  0.2380952380952381 0.04761904761904762 0  0.2857142857142857 0.04761904761904762 0  0.3333333333333333 0.04761904761904762 0  0.3809523809523809 0.04761904761904762 0  0.4285714285714285 0.04761904761904762 0  0.4761904761904762 0.04761904761904762 0  0.5238095238095238 0.04761904761904762 0  0.5714285714285714 0.04761904761904762 0  0.6190476190476191 0.04761904761904762 0  0.6666666666666666 0.04761904761904762 0  0.7142857142857143 0.04761904761904762 0  0.7619047619047619 0.04761904761904762 0  0.8095238095238095 0.04761904761904762 0  0.8571428571428571 0.04761904761904762 0  0.9047619047619048 0.04761904761904762 0  0.9523809523809523 0.04761904761904762 0  1 0.04761904761904762 0  0 0.09523809523809523 0  0.04761904761904762 0.09523809523809523 0  0.09523809523809523 0.09523809523809523 0  0.1428571428571428 0.09523809523809523 0  0.1904761904761905 0.09523809523809523 0  0.2380952380952381 0.09523809523809523 0  0.2857142857142857 0.09523809523809523 0  0.3333333333333333 0.09523809523809523 0  0.3809523809523809 0.09523809523809523 0  0.4285714285714285 0.09523809523809523 0  0.4761904761904762 0.09523809523809523 0  0.5238095238095238 0.09523809523809523 0  0.5714285714285714 0.09523809523809523 0  0.6190476190476191 0.09523809523809523 0  0.6666666666666666 0.09523809523809523 0  0.7142857142857143 0.09523809523809523 0  0.7619047619047619 0.09523809523809523 0  0.8095238095238095 0.09523809523809523 0  0.8571428571428571 0.09523809523809523 0  0.9047619047619048 0.09523809523809523 0  0.9523809523809523 0.09523809523809523 0  1 0.09523809523809523 0  0 0.1428571428571428 0  0.04761904761904762 0.1428571428571428 0  0.09523809523809523 0.1428571428571428 0  0.1428571428571428 0.1428571428571428 0  0.1904761904761905 0.1428571428571428 0  0.2380952380952381 0.1428571428571428 0  0.2857142857142857 0.1428571428571428 0  0.3333333333333333 0.1428571428571428 0  0.3809523809523809 0.1428571428571428 0  0.4285714285714285 0.1428571428571428 0  0.4761904761904762 0.1428571428571428 0  0.5238095238095238 0.1428571428571428 0  0.5714285714285714 0.1428571428571428 0  0.6190476190476191 0.1428571428571428 0  0.6666666666666666 0.1428571428571428 0  0.7142857142857143 0.1428571428571428 0  0.7619047619047619 0.1428571428571428 0  0.8095238095238095 0.1428571428571428 0  0.8571428571428571 0.1428571428571428 0  0.9047619047619048 0.1428571428571428 0  0.9523809523809523 0.1428571428571428 0  1 0.1428571428571428 0  0 0.1904761904761905 0  0.04761904761904762 0.1904761904761905 0  0.09523809523809523 0.1904761904761905 0  0.1428571428571428 0.1904761904761905 0  0.1904761904761905 0.1904761904761905 0  0.2380952380952381 0.1904761904761905 0  0.2857142857142857 0.1904761904761905 0  0.3333333333333333 0.1904761904761905 0  0.3809523809523809 0.1904761904761905 0  0.4285714285714285 0.1904761904761905 0  0.4761904761904762 0.1904761904761905 0  0.5238095238095238 0.1904761904761905 0  0.5714285714285714 0.1904761904761905 0  0.6190476190476191 0.1904761904761905 0  0.6666666666666666 0.1904761904761905 0  0.7142857142857143 0.1904761904761905 0  0.7619047619047619 0.1904761904761905 0  0.8095238095238095 0.1904761904761905 0  0.8571428571428571 0.1904761904761905 0  0.9047619047619048 0.1904761904761905 0  0.9523809523809523 0.1904761904761905 0  1 0.1904761904761905 0  0 0.2380952380952381 0  0.04761904761904762 0.2380952380952381 0  0.09523809523809523 0.2380952380952381 0  0.1428571428571428 0.2380952380952381 0  0.1904761904761905 0.2380952380952381 0  0.2380952380952381 0.2380952380952381 0  0.2857142857142857 0.2380952380952381 0  0.3333333333333333 0.2380952380952381 0  0.3809523809523809 0.2380952380952381 0  0.4285714285714285 0.2380952380952381 0  0.4761904761904762 0.2380952380952381 0  0.5238095238095238 0.2380952380952381 0  0.5714285714285714 0.2380952380952381 0  0.6190476190476191 0.2380952380952381 0  0.6666666666666666 0.2380952380952381 0  0.7142857142857143 0.2380952380952381 0  0.7619047619047619 0.2380952380952381 0  0.8095238095238095 0.2380952380952381 0  0.8571428571428571 0.2380952380952381 0  0.9047619047619048 0.2380952380952381 0  0.9523809523809523 0.2380952380952381 0  1 0.2380952380952381 0  0 0.2857142857142857 0  0.04761904761904762 0.2857142857142857 0  0.09523809523809523 0.2857142857142857 0  0.1428571428571428 0.2857142857142857 0  0.1904761904761905 0.2857142857142857 0  0.2380952380952381 0.2857142857142857 0  0.2857142857142857 0.2857142857142857 0  0.3333333333333333 0.2857142857142857 0  0.3809523809523809 0.2857142857142857 0  0.4285714285714285 0.2857142857142857 0  0.4761904761904762 0.2857142857142857 0  0.5238095238095238 0.2857142857142857 0  0.5714285714285714 0.2857142857142857 0  0.6190476190476191 0.2857142857142857 0  0.6666666666666666 0.2857142857142857 0  0.7142857142857143 0.2857142857142857 0  0.7619047619047619 0.2857142857142857 0  0.8095238095238095 0.2857142857142857 0  0.8571428571428571 0.2857142857142857 0  0.9047619047619048 0.2857142857142857 0  0.9523809523809523 0.2857142857142857 0  1 0.2857142857142857 0  0 0.3333333333333333 0  0.04761904761904762 0.3333333333333333 0  0.09523809523809523 0.3333333333333333 0  0.1428571428571428 0.3333333333333333 0  0.1904761904761905 0.3333333333333333 0  0.2380952380952381 0.3333333333333333 0  0.2857142857142857 0.3333333333333333 0  0.3333333333333333 0.3333333333333333 0  0.3809523809523809 0.3333333333333333 0  0.4285714285714285 0.3333333333333333 0  0.4761904761904762 0.3333333333333333 0  0.5238095238095238 0.3333333333333333 0  0.5714285714285714 0.3333333333333333 0  0.6190476190476191 0.3333333333333333 0  0.6666666666666666 0.3333333333333333 0  0.7142857142857143 0.3333333333333333 0  0.7619047619047619 0.3333333333333333 0  0.8095238095238095 0.3333333333333333 0  0.8571428571428571 0.3333333333333333 0  0.9047619047619048 0.3333333333333333 0  0.9523809523809523 0.3333333333333333 0  1 0.3333333333333333 0  0 0.3809523809523809 0  0.04761904761904762 0.3809523809523809 0  0.09523809523809523 0.3809523809523809 0  0.1428571428571428 0.3809523809523809 0  0.1904761904761905 0.3809523809523809 0  0.2380952380952381 0.3809523809523809 0  0.2857142857142857 0.3809523809523809 0  0.3333333333333333 0.3809523809523809 0  0.3809523809523809 0.3809523809523809 0  0.4285714285714285 0.3809523809523809 0  0.4761904761904762 0.3809523809523809 0  0.5238095238095238 0.3809523809523809 0  0.5714285714285714 0.3809523809523809 0  0.6190476190476191 0.3809523809523809 0  0.6666666666666666 0.3809523809523809 0  0.7142857142857143 0.3809523809523809 0  0.7619047619047619 0.3809523809523809 0  0.8095238095238095 0.3809523809523809 0  0.8571428571428571 0.3809523809523809 0  0.9047619047619048 0.3809523809523809 0  0.9523809523809523 0.3809523809523809 0  1 0.3809523809523809 0  0 0.4285714285714285 0  0.04761904761904762 0.4285714285714285 0  0.09523809523809523 0.4285714285714285 0  0.1428571428571428 0.4285714285714285 0  0.1904761904761905 0.4285714285714285 0  0.2380952380952381 0.4285714285714285 0  0.2857142857142857 0.4285714285714285 0  0.3333333333333333 0.4285714285714285 0  0.3809523809523809 0.4285714285714285 0  0.4285714285714285 0.4285714285714285 0  0.4761904761904762 0.4285714285714285 0  0.5238095238095238 0.4285714285714285 0  0.5714285714285714 0.4285714285714285 0  0.6190476190476191 0.4285714285714285 0  0.6666666666666666 0.4285714285714285 0  0.7142857142857143 0.4285714285714285 0  0.7619047619047619 0.4285714285714285 0  0.8095238095238095 0.4285714285714285 0  0.8571428571428571 0.4285714285714285 0  0.9047619047619048 0.4285714285714285 0  0.9523809523809523 0.4285714285714285 0  1 0.4285714285714285 0  0 0.4761904761904762 0  0.04761904761904762 0.4761904761904762 0  0.09523809523809523 0.4761904761904762 0  0.1428571428571428 0.4761904761904762 0  0.1904761904761905 0.4761904761904762 0  0.2380952380952381 0.4761904761904762 0  0.2857142857142857 0.4761904761904762 0  0.3333333333333333 0.4761904761904762 0  0.3809523809523809 0.4761904761904762 0  0.4285714285714285 0.4761904761904762 0  0.4761904761904762 0.4761904761904762 0  0.5238095238095238 0.4761904761904762 0  0.5714285714285714 0.4761904761904762 0  0.6190476190476191 0.4761904761904762 0  0.6666666666666666 0.4761904761904762 0  0.7142857142857143 0.4761904761904762 0  0.7619047619047619 0.4761904761904762 0  0.8095238095238095 0.4761904761904762 0  0.8571428571428571 0.4761904761904762 0  0.9047619047619048 0.4761904761904762 0  0.9523809523809523 0.4761904761904762 0  1 0.4761904761904762 0  0 0.5238095238095238 0  0.04761904761904762 0.5238095238095238 0  0.09523809523809523 0.5238095238095238 0  0.1428571428571428 0.5238095238095238 0  0.1904761904761905 0.5238095238095238 0  0.2380952380952381 0.5238095238095238 0  0.2857142857142857 0.5238095238095238 0  0.3333333333333333 0.5238095238095238 0  0.3809523809523809 0.5238095238095238 0  0.4285714285714285 0.5238095238095238 0  0.4761904761904762 0.5238095238095238 0  0.5238095238095238 0.5238095238095238 0  0.5714285714285714 0.5238095238095238 0  0.6190476190476191 0.523
[...]
<PointData  Vectors="f_20"> 
<DataArray  type="Float64"  Name="f_20"  NumberOfComponents="3" format="ascii">0.0000000000000000e+00 0.0000000000000000e+00 0.0000000000000000e+00  2.2675736961451248e-04 0.0000000000000000e+00 0.0000000000000000e+00  9.0702947845804993e-04 0.0000000000000000e+00 0.0000000000000000e+00  2.0408163265306120e-03 0.0000000000000000e+00 0.0000000000000000e+00  3.6281179138321997e-03 0.0000000000000000e+00 0.0000000000000000e+00  5.6689342403628109e-03 0.0000000000000000e+00 0.0000000000000000e+00  8.1632653061224480e-03 0.0000000000000000e+00 0.0000000000000000e+00  1.1111111111111110e-02 0.0000000000000000e+00 0.0000000000000000e+00  1.4512471655328799e-02 0.0000000000000000e+00 0.0000000000000000e+00  1.8367346938775508e-02 0.0000000000000000e+00 0.0000000000000000e+00  2.2675736961451243e-02 0.0000000000000000e+00 0.0000000000000000e+00  2.7437641723356016e-02 0.0000000000000000e+00 0.0000000000000000e+00  3.2653061224489792e-02 0.0000000000000000e+00 0.0000000000000000e+00  3.8321995464852612e-02 0.0000000000000000e+00 0.0000000000000000e+00  4.4444444444444439e-02 0.0000000000000000e+00 0.0000000000000000e+00  5.1020408163265314e-02 0.0000000000000000e+00 0.0000000000000000e+00  5.8049886621315196e-02 0.0000000000000000e+00 0.0000000000000000e+00  6.5532879818594111e-02 0.0000000000000000e+00 0.0000000000000000e+00  7.3469387755102034e-02 0.0000000000000000e+00 0.0000000000000000e+00  8.1859410430839011e-02 0.0000000000000000e+00 0.0000000000000000e+00  9.0702947845804974e-02 0.0000000000000000e+00 0.0000000000000000e+00  1.0000000000000001e-01 0.0000000000000000e+00 0.0000000000000000e+00  0.0000000000000000e+00 0.0000000000000000e+00 0.0000000000000000e+00  3.8849864636280169e-04 9.4124870872801914e-05 0.0000000000000000e+00  1.2001410696108742e-03 6.0643239753973675e-05 0.0000000000000000e+00  2.5340913939395516e-03 3.0250894118901300e-05 0.0000000000000000e+00  4.3731895281649081e-03 -1.7863312505235968e-05 0.0000000000000000e+00  6.7235268251296500e-03 -9.9731110149287611e-05 0.0000000000000000e+00  9.6313237598742250e-03 -1.8615579623720206e-04 0.0000000000000000e+00  1.3119967603557492e-02 -1.9318612900672731e-04 0.0000000000000000e+00  1.7078543323500291e-02 -5.5831824328127386e-05 0.0000000000000000e+00  2.1270651827102777e-02 1.8039031882861935e-04 0.0000000000000000e+00  2.5511208019342178e-02 3.9494357096592648e-04 0.0000000000000000e+00  2.9787750725040949e-02 4.6648484254218801e-04 0.0000000000000000e+00  3.4278100586111734e-02 3.9018666449019241e-04 0.0000000000000000e+00  3.9227233461361727e-02 2.9602006781450198e-04 0.0000000000000000e+00  4.4686070013014945e-02 2.2042077661333354e-04 0.0000000000000000e+00  5.0473590607389082e-02 2.0752020974643477e-05 0.0000000000000000e+00  5.6653768646537678e-02 -2.6763939863257803e-04 0.0000000000000000e+00  6.3687063759787318e-02 -4.5748270156689800e-04 0.0000000000000000e+00  7.1937658814340541e-02 -4.0289618653652031e-04 0.0000000000000000e+00  8.1044564584084378e-02 -1.7738347173137923e-04 0.0000000000000000e+00  9.0429962638535713e-02 7.3385024269767334e-06 0.0000000000000000e+00  1.0000000000000001e-01 0.0000000000000000e+00 0.0000000000000000e+00  0.0000000000000000e+00 0.0000000000000000e+00 0.0000000000000000e+00  4.2157150976477247e-04 5.5166131418992435e-05 0.0000000000000000e+00  1.3568213623431026e-03 7.8226304408806870e-06 0.0000000000000000e+00  2.8010999500955990e-03 -9.4947367334085618e-05 0.0000000000000000e+00  4.7736917745947590e-03 -2.0222250063763080e-04 0.0000000000000000e+00  7.2356879141891308e-03 -3.6905410691206292e-04 0.0000000000000000e+00  1.0214719083596564e-02 -5.8523705031759510e-04 0.0000000000000000e+00  1.3779306741198488e-02 -6.9571419095030619e-04 0.0000000000000000e+00  1.7913662983688603e-02 -4.8170593682596644e-04 0.0000000000000000e+00  2.2399092222006596e-02 8.3075976474275041e-05 0.0000000000000000e+00  2.6921156833095258e-02 7.4374620924738785e-04 0.0000000000000000e+00  3.1340952669393358e-02 1.1561903216145014e-03 0.0000000000000000e+00  3.5799280321188176e-02 1.1870468437277033e-03 0.0000000000000000e+00  4.0561565641972795e-02 1.0360963578628548e-03 0.0000000000000000e+00  4.5723483109982102e-02 8.8229652711993231e-04 0.0000000000000000e+00  5.1119327930269999e-02 5.7808740316204273e-04 0.0000000000000000e+00  5.6776456403246814e-02 4.5267432855238840e-05 0.0000000000000000e+00  6.3185713141879596e-02 -5.8888777077339722e-04 0.0000000000000000e+00  7.0984309693210762e-02 -1.0311461950577654e-03 0.0000000000000000e+00  8.0254760970893957e-02 -8.7694545910914226e-04 0.0000000000000000e+00  9.0169152337838010e-02 -3.1574721617199449e-04 0.0000000000000000e+00  1.0000000000000001e-01 0.0000000000000000e+00 0.0000000000000000e+00  0.0000000000000000e+00 0.0000000000000000e+00 0.0000000000000000e+00  4.5681504401250150e-04 -6.1955366675137911e-06 0.0000000000000000e+00  1.4156690677523389e-03 -1.2167869554862645e-04 0.0000000000000000e+00  2.9048279051328155e-03 -2.8156518914916791e-04 0.0000000000000000e+00  4.9044950657532328e-03 -4.5756831403127873e-04 0.0000000000000000e+00  7.3984412655780755e-03 -6.7542131356842345e-04 0.0000000000000000e+00  1.0365264879635259e-02 -9.7063692966116021e-04 0.0000000000000000e+00  1.3845387596121531e-02 -1.1959821698557342e-03 0.0000000000000000e+00  1.7908033201258871e-02 -1.0429595087944484e-03 0.0000000000000000e+00  2.2518174095346906e-02 -3.1368798120451710e-04 0.0000000000000000e+00  2.7404185604581088e-02 7.8201763717356692e-04 0.0000000000000000e+00  3.2247143886779482e-02 1.6791734530517024e-03 0.0000000000000000e+00  3.7008079150790123e-02 1.9867562555868513e-03 0.0000000000000000e+00  4.1887584877598645e-02 1.8930600317270652e-03 0.0000000000000000e+00  4.7009015607998361e-02 1.7183180301219118e-03 0.0000000000000000e+00  5.2294001373351336e-02 1.3708274379391236e-03 0.0000000000000000e+00  5.7784614099411755e-02 6.8870185541719000e-04 0.0000000000000000e+00  6.3895057114252904e-02 -3.0085417482238441e-04 0.0000000000000000e+00  7.1203362617660471e-02 -1.3206010014653621e-03 0.0000000000000000e+00  8.0020736525552444e-02 -1.6581552041061607e-03 0.0000000000000000e+00  8.9967533023675439e-02 -9.3253619557675041e-04 0.0000000000000000e+00  1.0000000000000001e-01 0.0000000000000000e+00 0.0000000000000000e+00  0.0000000000000000e+00 0.0000000000000000e+00 0.0000000000000000e+00  5.0112004904780756e-04 -9.8845501331830060e-05 0.0000000000000000e+00  1.5041768194522104e-03 -2.5078673571933817e-04 0.0000000000000000e+00  2.9773977041982862e-03 -4.6283229101640340e-04 0.0000000000000000e+00  4.9311354629534114e-03 -6.9445509188721416e-04 0.0000000000000000e+00  7.3724816581799708e-03 -9.7363394264486029e-04 0.0000000000000000e+00  1.0308396090840036e-02 -1.3232462492456282e-03 0.0000000000000000e+00  1.3736878258286891e-02 -1.6366936018358828e-03 0.0000000000000000e+00  1.7733436297158775e-02 -1.6122672468864153e-03 0.0000000000000000e+00  2.2402138225080238e-02 -9.2145874249298723e-04 0.0000000000000000e+00  2.7620458863967214e-02 4.4216463562983093e-04 0.0000000000000000e+00  3.2969897118284956e-02 1.8613399234578593e-03 0.0000000000000000e+00  3.8150595026421458e-02 2.6010249190277063e-03 0.0000000000000000e+00  4.3235872747410940e-02 2.6966089074518195e-03 0.0000000000000000e+00  4.8402010947296084e-02 2.5770381640661598e-03 0.0000000000000000e+00  5.3693469864452760e-02 2.2397077665759434e-03 0.0000000000000000e+00  5.9180986008843313e-02 1.4784458725314910e-03 0.0000000000000000e+00  6.5183619008988197e-02 2.3813044451588853e-04 0.0000000000000000e+00  7.2161838166067388e-02 -1.2282802527743769e-03 0.0000000000000000e+00  8.0446112669217487e-02 -2.1024011703376206e-03 0.0000000000000000e+00  8.9983073801541927e-02 -1.5510581601592562e-03 0.0000000000000000e+00  1.0000000000000001e-01 0.0000000000000000e+00 0.0000000000000000e+00  0.0000000000000000e+00 0.0000000000000000e+00 0.0000000000000000e+00  5.2443495111422812e-04 -2.4843392943157939e-04 0.0000000000000000e+00  1.6075071956405977e-03 -4.1865289621826512e-04 0.0000000000000000e+00  3.1263253522413582e-03 -6.1821339042219679e-04 0.0000000000000000e+00  5.0476341502250577e-03 -8.7208409211027012e-04 0.0000000000000000e+00  7.4161654612224237e-03 -1.2139519366501858e-03 0.0000000000000000e+00  1.0287102011955099e-02 -1.6495645779361877e-03 0.0000000000000000e+00  1.3685684162773368e-02 -2.0650790048353297e-03 0.0000000000000000e+00  1.7670417423461419e-02 -2.2026579310206406e-03 0.0000000000000000e+00  2.2395869934440173e-02 -1.6792226803391593e-03 0.0000000000000000e+00  2.7866193949781959e-02 -2.3815634849847254e-04 0.0000000000000000e+00  3.3668540761708006e-02 1.6513510342871436e-03 0.0000000000000000e+00  3.9277964241189338e-02 2.9568199473365112e-03 0.0000000000000000e+00  4.4581723397656765e-02 3.3908157042656308e-03 0.0000000000000000e+00  4.9796915913079769e-02 3.4026939764484577e-03 0.0000000000000000e+00  5.5115995867732200e-02 3.1086138552368966e-03 0.0000000000000000e+00  6.0668809114545752e-02 2.3204940232186282e-03 0.0000000000000000e+00  6.6673630119656255e-02 9.2435483879697931e-04 0.0000000000000000e+00  7.3446735197738089e-02 -8.4258257930526037e-04 0.0000000000000000e+00  8.1271626800407240e-02 -2.1318779540130000e-03 0.0000000000000000e+00  9.0251861025776800e-02 -1.8980215084884169e-03 0.0000000000000000e+00  1.0000000000000001e-01 0.0000000000000000e+00 0.0000000000000000e+00  0.0000000000000000e+00 0.0000000000000000e+00 0.0000000000000000e+00  4.8302254628235783e-04 -4.4249967189819442e-04 0.0000000000000000e+00  1.6165206281156764e-03 -6.8530479961226006e-04 0.0000000000000000e+00  3.2579442640533257e-03 -8.3703188387276742e-04 0.0000000000000000e+00  5.2710578924396794e-03 -1.0389613881838418e-03 0.0000000000000000e+00  7.6540829941956472e-03 -1.4006224018761374e-03 0.0000000000000000e+00  1.0482966146166816e-02 -1.9225555323372657e-03 0.0000000000000000e+00  1.3817693397813208e-02 -2.4603615314071053e-03 0.0000000000000000e+00  1.7721096965955349e-02 -2.7702669626150497e-03 0.0000000000000000e+00  2.2346848890315883e-02 -2.4810713317941404e-03 0.0000000000000000e+00  2.7815358371304923e-02 -1.1433697667830270e-03 0.0000000000000000e+00  3.3848991160714700e-02 1.0644456880205841e-03 0.0000000000000000e+00  3.9839872370123930e-02 2.9879213651435427e-03 0.0000000000000000e+00  4.5460589083894151e-02 3.8998118661649358e-03 0.0000000000000000e+00  5.0877064539349197e-02 4.1276217893941114e-03 0.0000000000000000e+00  5.6377878663912952e-02 3.9064240249710690e-03 0.0000000000000000e+00  6.2146884579659570e-02 3.1302599177021797e-03 0.0000000000000000e+00  6.8301170443049314e-02 1.6810864803116924e-03 0.0000000000000000e+00  7.4967496039470685e-02 -2.1378152102467172e-04 0.0000000000000000e+00  8.2337345392578615e-02 -1.7511654184212111e-03 0.0000000000000000e+00  9.0673275360626457e-02 -1.8681117370151451e-03 0.0000000000000000e+00  1.0000000000000001e-01 0.0000000000000000e+00 0.0000000000000000e+00  0.0000000000000000e+00 0.0000000000000000e+00 0.0000000000000000e+00  4.0257609931131528e-04 -5.8801369055153649e-04 0.0000000000000000e+00  1.4539969642323777e-03 -1.0206927998089783e-03 0.0000000000000000e+00  3.1678623418304234e-03 -1.2013206858844376e-03 0.0000000000000000e+00  5.3558248184956509e-03 -1.3137858835155730e-03 0.0000000000000000e+00  7.8814988635027370e-03 -1.6085549667332153e-03 0.0000000000000000e+00  1.0748553787199808e-02 -2.1450096785395685e-03 0.0000000000000000e+00  1.4010268419762431e-02 -2.7534472117347777e-03 0.0000000000000000e+00  1.7726549508997495e-02 -3.1788869013057667e-03 0.0000000000000000e+00  2.2031095250369129e-02 -3.0985117606784581e-03 0.0000000000000000e+00  2.7132559838373465e-02 -2.0152761458918154e-03 0.0000000000000000e+00  3.3024466297058359e-02 2.2690325634317364e-04 0.0000000000000000e+00  3.9249730383184141e-02 2.6283230271378069e-03 0.0000000000000000e+00  4.5329396900180105e-02 4.0696317445587634e-03 0.0000000000000000e+00  5.1230854363852808e-02 4.5910558047098302e-03 0.0000000000000000e+00  5.7202078612986137e-02 4.4944402793605544e-03 0.0000000000000000e+00  6.3413915758339823e-02 3.7938325365662797e-03 0.0000000000000000e+00  6.9867646295368499e-02 2.4241796576229152e-03 0.0000000000000000e+00  7.6504277314322869e-02 6.0297753964346000e-04 0.0000000000000000e+00  8.3441090708552643e-02 -9.9533904111725785e-04 0.0000000000000000e+00  9.1118527972424992e-02 -1.4640161003337320e-03 0.0000000000000000e+00  1.0000000000000001e-01 0.0000000000000000e+00 0.0000000000000000e+00  0.0000000000000000e+00 0.0000000000000000e+00 0.0000000000000000e+00  3.3618063105115360e-04 -6.1716419821611715e-04 0.0000000000000000e+00  1.2198478891564002e-03 -1.2605129075638822e-03 0.0000000000000000e+00  2.8037587557979719e-03 -1.6299992466027333e-03 0.0000000000000000e+00  5.0402753313543132e-03 -1.7451416540927905e-03 0.0000000000000000e+00  7.7203790119124652e-03 -1.9262248260038580e-03 0.0000000000000000e+00  1.0693827914168209e-02 -2.3670069016922669e-03 0.0000000000000000e+00  1.3931797221649229e-02 -2.9340131704945218e-03 0.0000000000000000e+00  1.7469027798958210e-02 -3.3564358960196513e-03 0.0000000000000000e+00  2.1407603833964020e-02 -3.3599246125775371e-03 0.0000000000000000e+00  2.5967521862705189e-02 -2.5408556780336577e-03 0.0000000000000000e+00  3.1368613528208640e-02 -5.5858063365314431e-04 0.0000000000000000e+00  3.7500485095555126e-02 1.9663405834385098e-03 0.0000000000000000e+00  4.3946912109129377e-02 3.7883579841885705e-03 0.0000000000000000e+00  5.0447924537146256e-02 4.6078438159905030e-03 0.0000000000000000e+00  5.7070197121341933e-02 4.6861834834339058e-03 0.0000000000000000e+00  6.3899020359548905e-02 4.1631789088402826e-03 0.0000000000000000e+00  7.0805367448140519e-02 3.0528918965224577e-03 0.0000000000000000e+00  7.7576715593910731e-02 1.5192093010818848e-03 0.0000000000000000e+00  8.4287377617691492e-02 2.9803048257197299e-05 0.0000000000000000e+00  9.1494191609133940e-02 -7.6313150167964868e-04 0.0000000000000000e+00  1.0000000000000001e-01 0.0000000000000000e+00 0.0000000000000000e+00  0.0000000000000000e+00 0.0000000000000000e+00 0.0000000000000000e+00  3.0187813574831672e-04 -5.4934522710112579e-04 0.0000000000000000e+00  1.0488342175340836e-03 -1.3098073709728701e-03 0.0000000000000000e+00  2.4004767120048330e-03 -1.9091997009282591e-03 0.0000000000000000e+00  4.4454306580024409e-03 -2.1875537643974850e-03 0.0000000000000000e+00  7.0928480473049071e-03 -2.3367542148014890e-03 0.0000000000000000e+00  1.0119431990643510e-02 -2.6307998339656267e-03 0.0000000000000000e+00  1.3368255597511385e-02 -3.0542076727848150e-03 0.0000000000000000e+00  1.6807901346852273e-02 -3.3607771004528111e-03 0.0000000000000000e+00  2.0502029381625174e-02 -3.3046678548428804e-03 0.0000000000000000e+00  2.4630540386080667e-02 -2.6135620401177440e-03 0.0000000000000000e+00  2.9467688031765346e-02 -9.7411657691108826e-04 0.0000000000000000e+00  3.5181506864652289e-02 1.3167651908717467e-03 0.0000000000000000e+00  4.1622833800569373e-02 3.1897586451910902e-03 0.0000000000000000e+00  4.8470337039563993e-02 4.1697113318028270e-03 0.0000000000000000e+00  5.5594518879307053e-02 4.3876617217212767e-03 0.0000000000000000e+00  6.3009202267077208e-02 4.0763871425713617e-03 0.0000000000000000e+00  7.0523365777590774e-02 3.3835919123993085e-03 0.0000000000000000e+00  7.7756458993494856e-02 2.3721744920561878e-03 0.0000000000000000e+00  8.4644333222568077e-02 1.1805357235634821e-03 0.0000000000000000e+00  9.1738190439935086e-02 1.4066196065770035e-04 0.0000000000000000e+00  1.0000000000000001e-01 0.0000000000000000e+00 0.0000000000000000e+00  0.0000000000000000e+00 0.0000000000000000e+00 0.0000000000000000e+00  3.0659054386192910e-04 -4.4150453858885077e-04 0.0000000000000000e+00  1.0006478936216980e-03 -1.2143467436545867e-03 0.0000000000000000e+00  2.1823586945151244e-03 -1.9532249854666748e-03 0.0000000000000000e+00  3.9598104564259459e-03 -2.4288180145121360e-03 0.0000000000000000e+00  6.3652549683900434e-03 -2.6739785248879734e-03 0.0000000000000000e+00  9.2666924095289298e-03 -2.8840838698627521e-03 0.0000000000000000e+00  1.2457211322389881e-02 -3.1410201269622432e-03 0.0000000000000000e+00  1.5826856631929575e-02 -3.2844348367228327e-03 0.0000000000000000e+00  1.9404361981052647e-02 -3.0927531880968469e-03 0.0000000000000000e+00  2.3332905014758147e-02 -2.3780028558196497e-03 0.0000000000000000e+00  2.7820763887381295e-02 -9.4994892107967037e-04 0.0000000000000000e+00  3.3084448281018981e-02 9.8556973373360008e-04 0.0000000000000000e+00  3.9221177365213196e-02 2.5954769593201500e-03 0.0000000000000000e+00  4.6061416262272024e-02 3.5076402734394640e-03 0.0000000000000000e+00  5.3367064009159193e-02 3.7515905617055952e-03 0.0000000000000000e+00  6.1076144526899336e-02 3.5428263508664984e-03 0.0000000000000000e+00  6.9073427775453014e-02 3.2241362942631697e-03 0.0000000000000000e+00  7.6941758086363166e-02 2.8745083368536249e-03 0.0000000000000000e+00  8.4377408999071424e-02 2.2086624937978422e-03 0.0000000000000000e+00  9.1750099463912826e-02 1.0892992252320131e-03 0.0000000000000000e+00  1.0000000000000001e-01 0.0000000000000000e+00 0.0000000000000000e+00  0.0000000000000000e+00 0.0000000000000000e+00 0.0000000000000000e+00  3.5009077784504500e-04 -3.5497203662629374e-04 0.0000000000000000e+00  1.0827370410675221e-03 -1.0759955092368365e-03 0.0000000000000000e+00  2.2200768790438599e-03 -1.8429969036764405e-03 0.0000000000000000e+00  3.8315954295888056e-03 -2.4289889747282694e-03 0.0000000000000000e+00  5.9843949927113798e-03 -2.7889304342906913e-03 0.0000000000000000e+00  8.6490417728067072e-03 -3.0019049436576244e-03 0.0000000000000000e+00  1.1677777359284280e-02 -3.1459811901692726e-03 0.0000000000000000e+00  1.4932492202412526e-02 -3.1560496864646505e-03 0.0000000000000000e+00  1.8431670705457936e-02 -2.8582149558637909e-03 0.0000000000000000e+00  2.2345369064995371e-02 -2.0735265246455007e-03 0.0000000000000000e+00  2.6818223145492939e-02 -6.8661387837998873e-04 0.0000000000000000e+00  3.1917442839430980e-02 1.0104253634249383e-03 0.0000000000000000e+00  3.7769044937458411e-02 2.2382918208338561e-03 0.0000000000000000e+00  4.4423973835787660e-02 2.8702296568864499e-03 0.0000000000000000e+00  5.1701573179211875e-02 3.0283773759481932e-03 0.0000000000000000e+00  5.9414225050220017e-02 2.8331628386545210e-03 0.0000000000000000e+00  6.7480267101087912e-02 2.6998288883453309e-03 0.0000000000000000e+00  7.5692787185294957e-02 2.8774329142760087e-03 0.0000000000000000e+00  8.3710100569365051e-02 2.8422901989830483e-03 0.0000000000000000e+00  9.1577246859526146e-02 1.8694749675482723e-03 0.0000000000000000e+00  1.0000000000000001e-01 0.0000000000000000e+00 0.0000000000000000e+00  0.0000000000000000e+00 0.0000000000000000e+00 0.0000000000000000e+00  4.0216703558915092e-04 -3.2387626022991565e-04 0.0000000000000000e+00  1.2138587813789532e-03 -9.7329173753128901e-04 0.0000000000000000e+00  2.3884832098947533e-03 -1.6937459866732687e-03 0.0000000000000000e+00  3.9506304364466524e-03 -2.2949460460985629e-03 0.0000000000000000e+00  5.9671511021502140e-03 -2.7113087724587050e-03 0.0000000000000000e+00  8.4608807578450424e-03 -2.9457687464821119e-03 0.0000000000000000e+00  1.1345558760433359e-02 -3.0315955519581972e-03 0.0000000000000000e+00  1.4493615584208034e-02 -2.9619253247401304e-03 0.0000000000000000e+00  1.7924825267308337e-02 -2.6422708674813207e-03 0.0000000000000000e+00  2.1895392295030944e-02 -1.8800423234197900e-03 0.0000000000000000e+00  2.6613280058062277e-02 -4.9663388414274915e-04 0.0000000000000000e+00  3.1948672687158154e-02 1.1548894746890748e-03 0.0000000000000000e+00  3.7780180705069277e-02 2.1304133899062551e-03 0.0000000000000000e+00  4.4214271848538760e-02 2.4224725062397144e-03 0.0000000000000000e+00  5.1267197515982528e-02 2.4164098505706491e-03 0.0000000000000000e+00  5.8743212427621677e-02 2.2467144010991573e-03 0.0000000000000000e+00  6.6485959472750322e-02 2.2054815887240786e-03 0.0000000000000000e+00  7.453215078596