<?xml version="1.0"?>
<VTKFile type="UnstructuredGrid"  version="0.1"  >
<UnstructuredGrid>
<Piece  NumberOfPoints="216" NumberOfCells="750">
<Points>
<DataArray  type="Float64"  NumberOfComponents="3"  format="ascii">5 0 0  6 0 0  6 0.3 0  6 0.3 0.1  6 0 0.1  5 0 0.1  5 0.3 0  5 0.3 0.1  7 0 0  7 0.3 0  7 0.3 0.1  7 0 0.1  8 0 0  8 0.3 0  8 0.3 0.1  8 0 0.1  9 0 0  9 0.3 0  9 0.3 0.1  9 0 0.1  10 0 0  10 0.3 0  10 0.3 0.1  10 0 0.1  6 0.6 0  6 0.6 0.1  5 0.6 0  5 0.6 0.1  7 0.6 0  7 0.6 0.1  8 0.6 0  8 0.6 0.1  9 0.6 0  9 0.6 0.1  10 0.6 0  10 0.6 0.1  6 0.9 0  6 0.9 0.1  5 0.9 0  5 0.9 0.1  7 0.9 0  7 0.9 0.1  8 0.9 0  8 0.9 0.1  9 0.9 0  9 0.9 0.1  10 0.9 0  10 0.9 0.1  6 1.2 0  6 1.2 0.1  5 1.2 0  5 1.2 0.1  7 1.2 0  7 1.2 0.1  8 1.2 0  8 1.2 0.1  9 1.2 0  9 1.2 0.1  10 1.2 0  10 1.2 0.1  6 1.5 0  6 1.5 0.1  5 1.5 0  5 1.5 0.1  7 1.5 0  7 1.5 0.1  8 1.5 0  8 1.5 0.1  9 1.5 0  9 1.5 0.1  10 1.5 0  10 1.5 0.1  6 0.3 0.2  6 0 0.2  5 0 0.2  5 0.3 0.2  7 0.3 0.2  7 0 0.2  8 0.3 0.2  8 0 0.2  9 0.3 0.2  9 0 0.2  10 0.3 0.2  10 0 0.2  6 0.6 0.2  5 0.6 0.2  7 0.6 0.2  8 0.6 0.2  9 0.6 0.2  10 0.6 0.2  6 0.9 0.2  5 0.9 0.2  7 0.9 0.2  8 0.9 0.2  9 0.9 0.2  10 0.9 0.2  6 1.2 0.2  5 1.2 0.2  7 1.2 0.2  8 1.2 0.2  9 1.2 0.2  10 1.2 0.2  6 1.5 0.2  5 1.5 0.2  7 1.5 0.2  8 1.5 0.2  9 1.5 0.2  10 1.5 0.2  6 0.3 0.3  6 0 0.3  5 0 0.3  5 0.3 0.3  7 0.3 0.3  7 0 0.3  8 0.3 0.3  8 0 0.3  9 0.3 0.3  9 0 0.3  10 0.3 0.3  10 0 0.3  6 0.6 0.3  5 0.6 0.3  7 0.6 0.3  8 0.6 0.3  9 0.6 0.3  10 0.6 0.3  6 0.9 0.3  5 0.9 0.3  7 0.9 0.3  8 0.9 0.3  9 0.9 0.3  10 0.9 0.3  6 1.2 0.3  5 1.2 0.3  7 1.2 0.3  8 1.2 0.3  9 1.2 0.3  10 1.2 0.3  6 1.5 0.3  5 1.5 0.3  7 1.5 0.3  8 1.5 0.3  9 1.5 0.3  10 1.5 0.3  6 0.3 0.4  6 0 0.4  5 0 0.4  5 0.3 0.4  7 0.3 0.4  7 0 0.4  8 0.3 0.4  8 0 0.4  9 0.3 0.4  9 0 0.4  10 0.3 0.4  10 0 0.4  6 0.6 0.4  5 0.6 0.4  7 0.6 0.4  8 0.6 0.4  9 0.6 0.4  10 0.6 0.4  6 0.9 0.4  5 0.9 0.4  7 0.9 0.4  8 0.9 0.4  9 0.9 0.4  10 0.9 0.4  6 1.2 0.4  5 1.2 0.4  7 1.2 0.4  8 1.2 0.4  9 1.2 0.4  10 1.2 0.4  6 1.5 0.4  5 1.5 0.4  7 1.5 0.4  8 1.5 0.4  9 1.5 0.4  10 1.5 0.4  6 0.3 0.5  6 0 0.5  5 0 0.5  5 0.3 0.5  7 0.3 0.5  7 0 0.5  8 0.3 0.5  8 0 0.5  9 0.3 0.5  9 0 0.5  10 0.3 0.5  10 0 0.5  6 0.6 0.5  5 0.6 0.5  7 0.6 0.5  8 0.6 0.5  9 0.6 0.5  10 0.6 0.5  6 0.9 0.5  5 0.9 0.5  7 0.9 0.5  8 0.9 0.5  9 0.9 0.5  10 0.9 0.5  6 1.2 0.5  5 1.2 0.5  7 1.2 0.5  8 1.2 0.5  9 1.2 0.5  10 1.2 0.5  6 1.5 0.5  5 1.5 0.5  7 1.5 0.5  8 1.5 0.5  9 1.5 0.5  10 1.5 0.5  </DataArray>
</Points>
<Cells>
<DataArray  type="UInt32"  Name="connectivity"  format="ascii">0 1 2 3  0 1 4 3  0 5 4 3  0 6 2 3  0 5 7 3  0 6 7 3  1 8 9 10  1 8 11 10  1 4 11 10  1 2 9 10  1 4 3 10  1 2 3 10  8 12 13 14  8 12 15 14  8 11 15 14  8 9 13 14  8 11 10 14  8 9 10 14  12 16 17 18  12 16 19 18  12 15 19 18  12 13 17 18  12 15 14 18  12 13 14 18  16 20 21 22  16 20 23 22  16 19 23 22  16 17 21 22  16 19 18 22  16 17 18 22  6 2 24 25  6 2 3 25  6 7 3 25  6 26 24 25  6 7 27 25  6 26 27 25  2 9 28 29  2 9 10 29  2 3 10 29  2 24 28 29  2 3 25 29  2 24 25 29  9 13 30 31  9 13 14 31  9 10 14 31  9 28 30 31  9 10 29 31  9 28 29 31  13 17 32 33  13 17 18 33  13 14 18 33  13 30 32 33  13 14 31 33  13 30 31 33  17 21 34 35  17 21 22 35  17 18 22 35  17 32 34 35  17 18 33 35  17 32 33 35  26 24 36 37  26 24 25 37  26 27 25 37  26 38 36 37  26 27 39 37  26 38 39 37  24 28 40 41  24 28 29 41  24 25 29 41  24 36 40 41  24 25 37 41  24 36 37 41  28 30 42 43  28 30 31 43  28 29 31 43  28 40 42 43  28 29 41 43  28 40 41 43  30 32 44 45  30 32 33 45  30 31 33 45  30 42 44 45  30 31 43 45  30 42 43 45  32 34 46 47  32 34 35 47  32 33 35 47  32 44 46 47  32 33 45 47  32 44 45 47  38 36 48 49  38 36 37 49  38 39 37 49  38 50 48 49  38 39 51 49  38 50 51 49  36 40 52 53  36 40 41 53  36 37 41 53  36 48 52 53  36 37 49 53  36 48 49 53  40 42 54 55  40 42 43 55  40 41 43 55  40 52 54 55  40 41 53 55  40 52 53 55  42 44 56 57  42 44 45 57  42 43 45 57  42 54 56 57  42 43 55 57  42 54 55 57  44 46 58 59  44 46 47 59  44 45 47 59  44 56 58 59  44 45 57 59  44 56 57 59  50 48 60 61  50 48 49 61  50 51 49 61  50 62 60 61  50 51 63 61  50 62 63 61  48 52 64 65  48 52 53 65  48 49 53 65  48 60 64 65  48 49 61 65  48 60 61 65  52 54 66 67  52 54 55 67  52 53 55 67  52 64 66 67  52 53 65 67  52 64 65 67  54 56 68 69  54 56 57 69  54 55 57 69  54 66 68 69  54 55 67 69  54 66 67 69  56 58 70 71  56 58 59 71  56 57 59 71  56 68 70 71  56 57 69 71  56 68 69 71  5 4 3 72  5 4 73 72  5 74 73 72  5 7 3 72  5 74 75 72  5 7 75 72  4 11 10 76  4 11 77 76  4 73 77 76  4 3 10 76  4 73 72 76  4 3 72 76  11 15 14 78  11 15 79 78  11 77 79 78  11 10 14 78  11 77 76 78  11 10 76 78  15 19 18 80  15 19 81 80  15 79 81 80  15 14 18 80  15 79 78 80  15 14 78 80  19 23 22 82  19 23 83 82  19 81 83 82  19 18 22 82  19 81 80 82  19 18 80 82  7 3 25 84  7 3 72 84  7 75 72 84  7 27 25 84  7 75 85 84  7 27 85 84  3 10 29 86  3 10 76 86  3 72 76 86  3 25 29 86  3 72 84 86  3 25 84 86  10 14 31 87  10 14 78 87  10 76 78 87  10 29 31 87  10 76 86 87  10 29 86 87  14 18 33 88  14 18 80 88  14 78 80 88  14 31 33 88  14 78 87 88  14 31 87 88  18 22 35 89  18 22 82 89  18 80 82 89  18 33 35 89  18 80 88 89  18 33 88 89  27 25 37 90  27 25 84 90  27 85 84 90  27 39 37 90  27 85 91 90  27 39 91 90  25 29 41 92  25 29 86 92  25 84 86 92  25 37 41 92  25 84 90 92  25 37 90 92  29 31 43 93  29 31 87 93  29 86 87 93  29 41 43 93  29 86 92 93  29 41 92 93  31 33 45 94  31 33 88 94  31 87 88 94  31 43 45 94  31 87 93 94  31 43 93 94  33 35 47 95  33 35 89 95  33 88 89 95  33 45 47 95  33 88 94 95  33 45 94 95  39 37 49 96  39 37 90 96  39 91 90 96  39 51 49 96  39 91 97 96  39 51 97 96  37 41 53 98  37 41 92 98  37 90 92 98  37 49 53 98  37 90 96 98  37 49 96 98  41 43 55 99  41 43 93 99  41 92 93 99  41 53 55 99  41 92 98 99  41 53 98 99  43 45 57 100  43 45 94 100  43 93 94 100  43 55 57 100  43 93 99 100  43 55 99 100  45 47 59 101  45 47 95 101  45 94 95 101  45 57 59 101  45 94 100 101  45 57 100 101  51 49 61 102  51 49 96 102  51 97 96 102  51 63 61 102  51 97 103 102  51 63 103 102  49 53 65 104  49 53 98 104  49 96 98 104  49 61 65 104  49 96 102 104  49 61 102 104  53 55 67 105  53 55 99 105  53 98 99 105  53 65 67 105  53 98 104 105  53 65 104 105  55 57 69 106  55 57 100 106  55 99 100 106  55 67 69 106  55 99 105 106  55 67 105 106  57 59 71 107  57 59 101 107  57 100 101 107  57 69 71 107  57 100 106 107  57 69 106 107  74 73 72 108  74 73 109 108  74 110 109 108  74 75 72 108  74 110 111 108  74 75 111 108  73 77 76 112  73 77 113 112  73 109 113 112  73 72 76 112  73 109 108 112  73 72 108 112  77 79 78 114  77 79 115 114  77 113 115 114  77 76 78 114  77 113 112 114  77 76 112 114  79 81 80 116  79 81 117 116  79 115 117 116  79 78 80 116  79 115 114 116  79 78 114 116  81 83 82 118  81 83 119 118  81 117 119 118  81 80 82 118  81 117 116 118  81 80 116 118  75 72 84 120  75 72 108 120  75 111 108 120  75 85 84 120  75 111 121 120  75 85 121 120  72 76 86 122  72 76 112 122  72 108 112 122  72 84 86 122  72 108 120 122  72 84 120 122  76 78 87 123  76 78 114 123  76 112 114 123  76 86 87 123  76 112 122 123  76 86 122 123  78 80 88 124  78 80 116 124  78 114 116 124  78 87 88 124  78 114 123 124  78 87 123 124  80 82 89 125  80 82 118 125  80 116 118 125  80 88 89 125  80 116 124 125  80 88 124 125  85 84 90 126  85 84 120 126  85 121 120 126  85 91 90 126  85 121 127 126  85 91 127 126  84 86 92 128  84 86 122 128  84 120 122 128  84 90 92 128  84 120 126 128  84 90 126 128  86 87 93 129  86 87 123 129  86 122 123 129  86 92 93 129  86 122 128 129  86 92 128 129  87 88 94 130  87 88 124 130  87 123 124 130  87 93 94 130  87 123 129 130  87 93 129 130  88 89 95 131  88 89 125 131  88 124 125 131  88 94 95 131  88 124 130 131  88 94 130 131  91 90 96 132  91 90 126 132  91 127 126 132  91 97 96 132  91 127 133 132  91 97 133 132  90 92 98 134  90 92 128 134  90 126 128 134  90 96 98 134  90 126 132 134  90 96 132 134  92 93 99 135  92 93 129 135  92 128 129 135  92 98 99 135  92 128 134 135  92 98 134 135  93 94 100 136  93 94 130 136  93 129 130 136  93 99 100 136  93 129 135 136  93 99 135 136  94 95 101 137  94 95 131 137  94 130 131 137  94 100 101 137  94 130 136 137  94 100 136 137  97 96 102 138  97 96 132 138  97 133 132 138  97 103 102 138  97 133 139 138  97 103 139 138  96 98 104 140  96 98 134 140  96 132 134 140  96 102 104 140  96 132 138 140  96 102 138 140  98 99 105 141  98 99 135 141  98 134 135 141  98 104 105 141  98 134 140 141  98 104 140 141  99 100 106 142  99 100 136 142  99 135 136 142  99 105 106 142  99 135 141 142  99 105 141 142  100 101 107 143  100 101 137 143  100 136 137 143  100 106 107 143  100 136 142 143  100 106 142 143  110 109 108 144  110 109 145 144  110 146 145 144  110 111 108 144  110 146 147 144  110 111 147 144  109 113 112 148  109 113 149 148  109 145 149 148  109 108 112 148  109 145 144 148  109 108 144 148  113 115 114 150  113 115 151 150  113 149 151 150  113 112 114 150  113 149 148 150  113 112 148 150  115 117 116 152  115 117 153 152  115 151 153 152  115 114 116 152  115 151 150 152  115 114 150 152  117 119 118 154  117 119 155 154  117 153 155 154  117 116 118 154  117 153 152 154  117 116 152 154  111 108 120 156  111 108 144 156  111 147 144 156  111 121 120 156  111 147 157 156  111 121 157 156  108 112 122 158  108 112 148 158  108 144 148 158  108 120 122 158  108 144 156 158  108 120 156 158  112 114 123 159  112 114 150 159  112 148 150 159  112 122 123 159  112 148 158 159  112 122 158 159  114 116 124 160  114 116 152 160  114 150 152 160  114 123 124 160  114 150 159 160  114 123 159 160  116 118 125 161  116 118 154 161  116 152 154 161  116 124 125 161  116 152 160 161  116 124 160 161  121 120 126 162  121 120 156 162  121 157 156 162  121 127 126 162  121 157 163 162  121 127 163 162  120 122 128 164  120 122 158 164  120 156 158 164  120 126 128 164  120 156 162 164  120 126 162 164  122 123 129 165  122 123 159 165  122 158 159 165  122 128 129 165  122 158 164 165  122 128 164 165  123 124 130 166  123 124 160 166  123 159 160 166  123 129 130 166  123 159 165 166  123 129 165 166  124 125 131 167  124 125 161 167  124 160 161 167  124 130 131 167  124 160 166 167  124 130 166 167  127 126 132 168  127 126 162 168  127 163 162 168  127 133 132 168  127 163 169 168  127 133 169 168  126 128 134 170  126 128 164 170  126 162 164 170  126 132 134 170  126 162 168 170  126 132 168 170  128 129 135 171  128 129 165 171  128 164 165 171  128 134 135 171  128 164 170 171  128 134 170 171  129 130 136 172  129 130 166 172  129 165 166 172  129 135 136 172  129 165 171 172  129 135 171 172  130 131 137 173  130 131 167 173  130 166 167 173  130 136 137 173  130 166 172 173  130 136 172 173  133 132 138 174  133 132 168 174  133 169 168 174  133 139 138 174  133 169 175 174  133 139 175 174  132 134 140 176  132 134 170 176  132 168 170 176  132 138 140 176  132 168 174 176  132 138 174 176  134 135 141 177  134 135 171 177  134 170 171 177  134 140 141 177  134 170 176 177  134 140 176 177  135 136 142 178  135 136 172 178  135 171 172 178  135 141 142 178  135 171 177 178  135 141 177 178  136 137 143 179  136 137 173 179  136 172 173 179  136 142 143 179  136 172 178 179  136 142 178 179  146 145 144 180  146 145 181 180  146 182 181 180  146 147 144 180  146 182 183 180  146 147 183 180  145 149 148 184  145 149 185 184  145 181 185 184  145 144 148 184  145 181 180 184  145 144 180 184  149 151 150 186  149 151 187 186  149 185 187 186  149 148 150 186  149 185 184 186  149 148 184 186  151 153 152 188  151 153 189 188  151 187 189 188  151 150 152 188  151 187 186 188  151 150 186 188  153 155 154 190  153 155 191 190  153 189 191 190  153 152 154 190  153 189 188 190  153 152 188 190  147 144 156 192  147 144 180 192  147 183 180 192  147 157 156 192  147 183 193 192  147 157 193 192  144 148 158 194  144 148 184 194  144 180 184 194  144 156 158 194  144 180 192 194  144 156 192 194  148 150 159 195  148 150 186 195  148 184 186 195  148 158 159 195  148 184 194 195  148 158 194 195  150 152 160 196  150 152 188 196  150 186 188 196  150 159 160 196  150 186 195 196  150 159 195 196  152 154 161 197  152 154 190 197  152 188 190 197  152 160 161 197  152 188 196 197  152 160 196 197  157 156 162 198  157 156 192 198  157 193 192 198  157 163 162 198  157 193 199 198  157 163 199 198  156 158 164 200  156 158 194 200  156 192 194 200  156 162 164 200  156 192 198 200  156 162 198 200  158 159 165 201  158 159 195 201  158 194 195 201  158 164 165 201  158 194 200 201  158 164 200 201  159 160 166 202  159 160 196 202  159 195 196 202  159 165 166 202  159 195 201 202  159 165 201 202  160 161 167 203  160 161 197 203  160 196 197 203  160 166 167 203  160 196 202 203  160 166 202 203  163 162 168 204  163 162 198 204  163 199 198 204  163 169 168 204  163 199 205 204  163 169 205 204  162 164 170 206  162 164 200 206  162 198 200 206  162 168 170 206  162 198 204 206  162 168 204 206  164 165 171 207  164 165 201 207  164 200 201 207  164 170 171 207  164 200 206 207  164 170 206 207  165 166 172 208  165 166 202 208  165 201 202 208  165 171 172 208  165 201 207 208  165 171 207 208  166 167 173 209  166 167 203 209  166 202 203 209  166 172 173 209  166 202 208 209  166 172 208 209  169 168 174 210  169 168 204 210  169 205 204 210  169 175 174 210  169 205 211 210  169 175 211 210  168 170 176 212  168 170 206 212  168 204 206 212  168 174 176 212  168 204 210 212  168 174 210 212  170 171 177 213  170 171 207 213  170 206 207 213  170 176 177 213  170 206 212 213  170 176 212 213  171 172 178 214  171 172 208 214  171 207 208 214  171 177 178 214  171 207 213 214  171 177 213 214  172 173 179 215  172 173 209 215  172 208 209 215  172 178 179 215  172 208 214 215  172 178 214 215  </DataArray>
<DataArray  type="UInt32"  Name="offsets"  format="ascii">4 8 12 16 20 24 28 32 36 40 44 48 52 56 60 64 68 72 76 80 84 88 92 96 100 104 108 112 116 120 124 128 132 136 140 144 148 152 156 160 164 168 172 176 180 184 188 192 196 200 204 208 212 216 220 224 228 232 236 240 244 248 252 256 260 264 268 272 276 280 284 288 292 296 300 304 308 312 316 320 324 328 332 336 340 344 348 352 356 360 364 368 372 376 380 384 388 392 396 400 404 408 412 416 420 424 428 432 436 440 444 448 452 456 460 464 468 472 476 480 484 488 492 496 500 504 508 512 516 520 524 528 532 536 540 544 548 552 556 560 564 568 572 576 580 584 588 592 596 600 604 608 612 616 620 624 628 632 636 640 644 648 652 656 660 664 668 672 676 680 684 688 692 696 700 704 708 712 716 720 724 728 732 736 740 744 748 752 756 760 764 768 772 776 780 784 788 792 796 800 804 808 812 816 820 824 828 832 836 840 844 848 852 856 860 864 868 872 876 880 884 888 892 896 900 904 908 912 916 920 924 928 932 936 940 944 948 952 956 960 964 968 972 976 980 984 988 992 996 1000 1004 1008 1012 1016 1020 1024 1028 1032 1036 1040 1044 1048 1052 1056 1060 1064 1068 1072 1076 1080 1084 1088 1092 1096 1100 1104 1108 1112 1116 1120 1124 1128 1132 1136 1140 1144 1148 1152 1156 1160 1164 1168 1172 1176 1180 1184 1188 1192 1196 1200 1204 1208 1212 1216 1220 1224 1228 1232 1236 1240 1244 1248 1252 1256 1260 1264 1268 1272 1276 1280 1284 1288 1292 1296 1300 1304 1308 1312 1316 1320 1324 1328 1332 1336 1340 1344 1348 1352 1356 1360 1364 1368 1372 1376 1380 1384 1388 1392 1396 1400 1404 1408 1412 1416 1420 1424 1428 1432 1436 1440 1444 1448 1452 1456 1460 1464 1468 1472 1476 1480 1484 1488 1492 1496 1500 1504 1508 1512 1516 1520 1524 1528 1532 1536 1540 1544 1548 1552 1556 1560 1564 1568 1572 1576 1580 1584 1588 1592 1596 1600 1604 1608 1612 1616 1620 1624 1628 1632 1636 1640 1644 1648 1652 1656 1660 1664 1668 1672 1676 1680 1684 1688 1692 1696 1700 1704 1708 1712 1716 1720 1724 1728 1732 1736 1740 1744 1748 1752 1756 1760 1764 1768 1772 1776 1780 1784 1788 1792 1796 1800 1804 1808 1812 1816 1820 1824 1828 1832 1836 1840 1844 1848 1852 1856 1860 1864 1868 1872 1876 1880 1884 1888 1892 1896 1900 1904 1908 1912 1916 1920 1924 1928 1932 1936 1940 1944 1948 1952 1956 1960 1964 1968 1972 1976 1980 1984 1988 1992 1996 2000 2004 2008 2012 2016 2020 2024 2028 2032 2036 2040 2044 2048 2052 2056 2060 2064 2068 2072 2076 2080 2084 2088 2092 2096 2100 2104 2108 2112 2116 2120 2124 2128 2132 2136 2140 2144 2148 2152 2156 2160 2164 2168 2172 2176 2180 2184 2188 2192 2196 2200 2204 2208 2212 2216 2220 2224 2228 2232 2236 2240 2244 2248 2252 2256 2260 2264 2268 2272 2276 2280 2284 2288 2292 2296 2300 2304 2308 2312 2316 2320 2324 2328 2332 2336 2340 2344 2348 2352 2356 2360 2364 2368 2372 2376 2380 2384 2388 2392 2396 2400 2404 2408 2412 2416 2420 2424 2428 2432 2436 2440 2444 2448 2452 2456 2460 2464 2468 2472 2476 2480 2484 2488 2492 2496 2500 2504 2508 2512 2516 2520 2524 2528 2532 2536 2540 2544 2548 2552 2556 2560 2564 2568 2572 2576 2580 2584 2588 2592 2596 2600 2604 2608 2612 2616 2620 2624 2628 2632 2636 2640 2644 2648 2652 2656 2660 2664 2668 2672 2676 2680 2684 2688 2692 2696 2700 2704 2708 2712 2716 2720 2724 2728 2732 2736 2740 2744 2748 2752 2756 2760 2764 2768 2772 2776 2780 2784 2788 2792 2796 2800 2804 2808 2812 2816 2820 2824 2828 2832 2836 2840 2844 2848 2852 2856 2860 2864 2868 2872 2876 2880 2884 2888 2892 2896 2900 2904 2908 2912 2916 2920 2924 2928 2932 2936 2940 2944 2948 2952 2956 2960 2964 2968 2972 2976 2980 2984 2988 2992 2996 3000 </DataArray>
<DataArray  type="UInt8"  Name="types"  format="ascii">10 10 10 10 10 10 10 10 10 10 10 10 10 10 10 10 10 10 10 10 10 10 10 10 10 10 10 10 10 10 10 10 10 10 10 10 10 10 10 10 10 10 10 10 10 10 10 10 10 10 10 10 10 10 10 10 10 10 10 10 10 10 10 10 10 10 10 10 10 10 10 10 10 10 10 10 10 10 10 10 10 10 10 10 10 10 10 10 10 10 10 10 10 10 10 10 10 10 10 10 10 10 10 10 10 10 10 10 10 10 10 10 10 10 10 10 10 10 10 10 10 10 10 10 10 10 10 10 10 10 10 10 10 10 10 10 10 10 10 10 10 10 10 10 10 10 10 10 10 10 10 10 10 10 10 10 10 10 10 10 10 10 10 10 10 10 10 10 10 10 10 10 10 10 10 10 10 10 10 10 10 10 10 10 10 10 10 10 10 10 10 10 10 10 10 10 10 10 10 10 10 10 10 10 10 10 10 10 10 10 10 10 10 10 10 10 10 10 10 10 10 10 10 10 10 10 10 10 10 10 10 10 10 10 10 10 10 10 10 10 10 10 10 10 10 10 10 10 10 10 10 10 10 10 10 10 10 10 10 10 10 10 10 10 10 10 10 10 10 10 10 10 10 10 10 10 10 10 10 10 10 10 10 10 10 10 10 10 10 10 10 10 10 10 10 10 10 10 10 10 10 10 10 10 10 10 10 10 10 10 10 10 10 10 10 10 10 10 10 10 10 10 10 10 10 10 10 10 10 10 10 10 10 10 10 10 10 10 10 10 10 10 10 10 10 10 10 10 10 10 10 10 10 10 10 10 10 10 10 10 10 10 10 10 10 10 10 10 10 10 10 10 10 10 10 10 10 10 10 10 10 10 10 10 10 10 10 10 10 10 10 10 10 10 10 10 10 10 10 10 10 10 10 10 10 10 10 10 10 10 10 10 10 10 10 10 10 10 10 10 10 10 10 10 10 10 10 10 10 10 10 10 10 10 10 10 10 10 10 10 10 10 10 10 10 10 10 10 10 10 10 10 10 10 10 10 10 10 10 10 10 10 10 10 10 10 10 10 10 10 10 10 10 10 10 10 10 10 10 10 10 10 10 10 10 10 10 10 10 10 10 10 10 10 10 10 10 10 10 10 10 10 10 10 10 10 10 10 10 10 10 10 10 10 10 10 10 10 10 10 10 10 10 10 10 10 10 10 10 10 10 10 10 10 10 10 10 10 10 10 10 10 10 10 10 10 10 10 10 10 10 10 10 10 10 10 10 10 10 10 10 10 10 10 10 10 10 10 10 10 10 10 10 10 10 10 10 10 10 10 10 10 10 10 10 10 10 10 10 10 10 10 10 10 10 10 10 10 10 10 10 10 10 10 10 10 10 10 10 10 10 10 10 10 10 10 10 10 10 10 10 10 10 10 10 10 10 10 10 10 10 10 10 10 10 10 10 10 10 10 10 10 10 10 10 10 10 10 10 10 10 10 10 10 10 10 10 10 10 10 10 10 10 10 10 10 10 10 10 10 10 10 10 10 10 10 10 10 10 10 10 10 10 10 10 10 10 10 10 10 10 10 10 10 10 10 10 10 10 10 10 10 10 10 10 10 10 10 10 10 10 10 10 10 10 10 10 10 10 10 10 10 10 10 10 10 10 10 10 10 10 10 10 10 10 10 10 10 10 10 10 10 10 10 10 10 10 10 10 10 </DataArray>
</Cells>
<CellData  Tensors="f_53"> 