<?xml version="1.0"?>
<VTKFile type="UnstructuredGrid"  version="0.1"  >
<UnstructuredGrid>
<Piece  NumberOfPoints="25921" NumberOfCells="51200">
<Points>
<DataArray  type="Float64"  NumberOfComponents="3"  format="ascii">0 0 0  0.00625 0 0  0.0125 0 0  0.01875 0 0  0.025 0 0  0.03125 0 0  0.0375 0 0  0.04375 0 0  0.05 0 0  0.05625 0 0  0.0625 0 0  0.06875000000000001 0 0  0.075 0 0  0.08125 0 0  0.08749999999999999 0 0  0.09375 0 0  0.1 0 0  0.10625 0 0  0.1125 0 0  0.11875 0 0  0.125 0 0  0.13125 0 0  0.1375 0 0  0.14375 0 0  0.15 0 0  0.15625 0 0  0.1625 0 0  0.16875 0 0  0.175 0 0  0.18125 0 0  0.1875 0 0  0.19375 0 0  0.2 0 0  0.20625 0 0  0.2125 0 0  0.21875 0 0  0.225 0 0  0.23125 0 0  0.2375 0 0  0.24375 0 0  0.25 0 0  0.25625 0 0  0.2625 0 0  0.26875 0 0  0.275 0 0  0.28125 0 0  0.2875 0 0  0.29375 0 0  0.3 0 0  0.30625 0 0  0.3125 0 0  0.31875 0 0  0.325 0 0  0.33125 0 0  0.3375 0 0  0.34375 0 0  0.35 0 0  0.35625 0 0  0.3625 0 0  0.36875 0 0  0.375 0 0  0.38125 0 0  0.3875 0 0  0.39375 0 0  0.4 0 0  0.40625 0 0  0.4125 0 0  0.41875 0 0  0.425 0 0  0.43125 0 0  0.4375 0 0  0.44375 0 0  0.45 0 0  0.45625 0 0  0.4625 0 0  0.46875 0 0  0.475 0 0  0.48125 0 0  0.4875 0 0  0.49375 0 0  0.5 0 0  0.50625 0 0  0.5125 0 0  0.51875 0 0  0.525 0 0  0.53125 0 0  0.5375 0 0  0.54375 0 0  0.55 0 0  0.55625 0 0  0.5625 0 0  0.56875 0 0  0.575 0 0  0.58125 0 0  0.5875 0 0  0.59375 0 0  0.6 0 0  0.60625 0 0  0.6125 0 0  0.61875 0 0  0.625 0 0  0.63125 0 0  0.6375 0 0  0.64375 0 0  0.65 0 0  0.65625 0 0  0.6625 0 0  0.66875 0 0  0.675 0 0  0.68125 0 0  0.6875 0 0  0.69375 0 0  0.7 0 0  0.70625 0 0  0.7125 0 0  0.71875 0 0  0.725 0 0  0.73125 0 0  0.7375 0 0  0.74375 0 0  0.75 0 0  0.75625 0 0  0.7625 0 0  0.76875 0 0  0.775 0 0  0.78125 0 0  0.7875 0 0  0.79375 0 0  0.8 0 0  0.80625 0 0  0.8125 0 0  0.81875 0 0  0.825 0 0  0.83125 0 0  0.8375 0 0  0.84375 0 0  0.85 0 0  0.85625 0 0  0.8625 0 0  0.86875 0 0  0.875 0 0  0.88125 0 0  0.8875 0 0  0.89375 0 0  0.9 0 0  0.90625 0 0  0.9125 0 0  0.91875 0 0  0.925 0 0  0.93125 0 0  0.9375 0 0  0.94375 0 0  0.95 0 0  0.95625 0 0  0.9625 0 0  0.96875 0 0  0.975 0 0  0.98125 0 0  0.9875 0 0  0.99375 0 0  1 0 0  0 0.00625 0  0.00625 0.00625 0  0.0125 0.00625 0  0.01875 0.00625 0  0.025 0.00625 0  0.03125 0.00625 0  0.0375 0.00625 0  0.04375 0.00625 0  0.05 0.00625 0  0.05625 0.00625 0  0.0625 0.00625 0  0.06875000000000001 0.00625 0  0.075 0.00625 0  0.08125 0.00625 0  0.08749999999999999 0.00625 0  0.09375 0.00625 0  0.1 0.00625 0  0.10625 0.00625 0  0.1125 0.00625 0  0.11875 0.00625 0  0.125 0.00625 0  0.13125 0.00625 0  0.1375 0.00625 0  0.14375 0.00625 0  0.15 0.00625 0  0.15625 0.00625 0  0.1625 0.00625 0  0.16875 0.00625 0  0.175 0.00625 0  0.18125 0.00625 0  0.1875 0.00625 0  0.19375 0.00625 0  0.2 0.00625 0  0.20625 0.00625 0  0.2125 0.00625 0  0.21875 0.00625 0  0.225 0.00625 0  0.23125 0.00625 0  0.2375 0.00625 0  0.24375 0.00625 0  0.25 0.00625 0  0.25625 0.00625 0  0.2625 0.00625 0  0.26875 0.00625 0  0.275 0.00625 0  0.28125 0.00625 0  0.2875 0.00625 0  0.29375 0.00625 0  0.3 0.00625 0  0.30625 0.00625 0  0.3125 0.00625 0  0.31875 0.00625 0  0.325 0.00625 0  0.33125 0.00625 0  0.3375 0.00625 0  0.34375 0.00625 0  0.35 0.00625 0  0.35625 0.00625 0  0.3625 0.00625 0  0.36875 0.00625 0  0.375 0.00625 0  0.38125 0.00625 0  0.3875 0.00625 0  0.39375 0.00625 0  0.4 0.00625 0  0.40625 0.00625 0  0.4125 0.00625 0  0.41875 0.00625 0  0.425 0.00625 0  0.43125 0.00625 0  0.4375 0.00625 0  0.44375 0.00625 0  0.45 0.00625 0  0.45625 0.00625 0  0.4625 0.00625 0  0.46875 0.00625 0  0.475 0.00625 0  0.48125 0.00625 0  0.4875 0.00625 0  0.49375 0.00625 0  0.5 0.00625 0  0.50625 0.00625 0  0.5125 0.00625 0  0.51875 0.00625 0  0.525 0.00625 0  0.53125 0.00625 0  0.5375 0.00625 0  0.54375 0.00625 0  0.55 0.00625 0  0.55625 0.00625 0  0.5625 0.00625 0  0.56875 0.00625 0  0.575 0.00625 0  0.58125 0.00625 0  0.5875 0.00625 0  0.59375 0.00625 0  0.6 0.00625 0  0.60625 0.00625 0  0.6125 0.00625 0  0.61875 0.00625 0  0.625 0.00625 0  0.63125 0.00625 0  0.6375 0.00625 0  0.64375 0.00625 0  0.65 0.00625 0  0.65625 0.00625 0  0.6625 0.00625 0  0.66875 0.00625 0  0.675 0.00625 0  0.68125 0.00625 0  0.6875 0.00625 0  0.69375 0.00625 0  0.7 0.00625 0  0.70625 0.00625 0  0.7125 0.00625 0  0.71875 0.00625 0  0.725 0.00625 0  0.73125 0.00625 0  0.7375 0.00625 0  0.74375 0.00625 0  0.75 0.00625 0  0.75625 0.00625 0  0.7625 0.00625 0  0.76875 0.00625 0  0.775 0.00625 0  0.78125 0.00625 0  0.7875 0.00625 0  0.79375 0.00625 0  0.8 0.00625 0  0.80625 0.00625 0  0.8125 0.00625 0  0.81875 0.00625 0  0.825 0.00625 0  0.83125 0.00625 0  0.8375 0.00625 0  0.84375 0.00625 0  0.85 0.00625 0  0.85625 0.00625 0  0.8625 0.00625 0  0.86875 0.00625 0  0.875 0.00625 0  0.88125 0.00625 0  0.8875 0.00625 0  0.89375 0.00625 0  0.9 0.00625 0  0.90625 0.00625 0  0.9125 0.00625 0  0.91875 0.00625 0  0.925 0.00625 0  0.93125 0.00625 0  0.9375 0.00625 0  0.94375 0.00625 0  0.95 0.00625 0  0.95625 0.00625 0  0.9625 0.00625 0  0.96875 0.00625 0  0.975 0.00625 0  0.98125 0.00625 0  0.9875 0.00625 0  0.99375 0.00625 0  1 0.00625 0  0 0.0125 0  0.00625 0.0125 0  0.0125 0.0125 0  0.01875 0.0125 0  0.025 0.0125 0  0.03125 0.0125 0  0.0375 0.0125 0  0.04375 0.0125 0  0.05 0.0125 0  0.05625 0.0125 0  0.0625 0.0125 0  0.06875000000000001 0.0125 0  0.075 0.0125 0  0.08125 0.0125 0  0.08749999999999999 0.0125 0  0.09375 0.0125 0  0.1 0.0125 0  0.10625 0.0125 0  0.1125 0.0125 0  0.11875 0.0125 0  0.125 0.0125 0  0.13125 0.0125 0  0.1375 0.0125 0  0.14375 0.0125 0  0.15 0.0125 0  0.15625 0.0125 0  0.1625 0.0125 0  0.16875 0.0125 0  0.175 0.0125 0  0.18125 0.0125 0  0.1875 0.0125 0  0.19375 0.0125 0  0.2 0.0125 0  0.20625 0.0125 0  0.2125 0.0125 0  0.21875 0.0125 0  0.225 0.0125 0  0.23125 0.0125 0  0.2375 0.0125 0  0.24375 0.0125 0  0.25 0.0125 0  0.25625 0.0125 0  0.2625 0.0125 0  0.26875 0.0125 0  0.275 0.0125 0  0.28125 0.0125 0  0.2875 0.0125 0  0.29375 0.0125 0  0.3 0.0125 0  0.30625 0.0125 0  0.3125 0.0125 0  0.31875 0.0125 0  0.325 0.0125 0  0.33125 0.0125 0  0.3375 0.0125 0  0.34375 0.0125 0  0.35 0.0125 0  0.35625 0.0125 0  0.3625 0.0125 0  0.36875 0.0125 0  0.375 0.0125 0  0.38125 0.0125 0  0.3875 0.0125 0  0.39375 0.0125 0  0.4 0.0125 0  0.40625 0.0125 0  0.4125 0.0125 0  0.41875 0.0125 0  0.425 0.0125 0  0.43125 0.0125 0  0.4375 0.0125 0  0.44375 0.0125 0  0.45 0.0125 0  0.45625 0.0125 0  0.4625 0.0125 0  0.46875 0.0125 0  0.475 0.0125 0  0.48125 0.0125 0  0.4875 0.0125 0  0.49375 0.0125 0  0.5 0.0125 0  0.50625 0.0125 0  0.5125 0.0125 0  0.51875 0.0125 0  0.525 0.0125 0  0.53125 0.0125 0  0.5375 0.0125 0  0.54375 0.0125 0  0.55 0.0125 0  0.55625 0.0125 0  0.5625 0.0125 0  0.56875 0.0125 0  0.575 0.0125 0  0.58125 0.0125 0  0.5875 0.0125 0  0.59375 0.0125 0  0.6 0.0125 0  0.60625 0.0125 0  0.6125 0.0125 0  0.61875 0.0125 0  0.625 0.0125 0  0.63125 0.0125 0  0.6375 0.0125 0  0.64375 0.0125 0  0.65 0.0125 0  0.65625 0.0125 0  0.6625 0.0125 0  0.66875 0.0125 0  0.675 0.0125 0  0.68125 0.0125 0  0.6875 0.0125 0  0.69375 0.0125 0  0.7 0.0125 0  0.70625 0.0125 0  0.7125 0.0125 0  0.71875 0.0125 0  0.725 0.0125 0  0.73125 0.0125 0  0.7375 0.0125 0  0.74375 0.0125 0  0.75 0.0125 0  0.75625 0.0125 0  0.7625 0.0125 0  0.76875 0.0125 0  0.775 0.0125 0  0.78125 0.0125 0  0.7875 0.0125 0  0.79375 0.0125 0  0.8 0.0125 0  0.80625 0.0125 0  0.8125 0.0125 0  0.81875 0.0125 0  0.825 0.0125 0  0.83125 0.0125 0  0.8375 0.0125 0  0.84375 0.0125 0  0.85 0.0125 0  0.85625 0.0125 0  0.8625 0.0125 0  0.86875 0.0125 0  0.875 0.0125 0  0.88125 0.0125 0  0.8875 0.0125 0  0.89375 0.0125 0  0.9 0.0125 0  0.90625 0.0125 0  0.9125 0.0125 0  0.91875 0.0125 0  0.925 0.0125 0  0.93125 0.0125 0  0.9375 0.0125 0  0.94375 0.0125 0  0.95 0.0125 0  0.95625 0.0125 0  0.9625 0.0125 0  0.96875 0.0125 0  0.975 0.0125 0  0.98125 0.0125 0  0.9875 0.0125 0  0.99375 0.0125 0  1 0.0125 0  0 0.01875 0  0.00625 0.01875 0  0.0125 0.01875 0  0.01875 0.01875 0  0.025 0.01875 0  0.03125 0.01875 0  0.0375 0.01875 0  0.04375 0.01875 0  0.05 0.01875 0  0.05625 0.01875 0  0.0625 0.01875 0  0.06875000000000001 0.01875 0  0.075 0.01875 0  0.08125 0.01875 0  0.08749999999999999 0.01875 0  0.09375 0.01875 0  0.1 0.01875 0  0.10625 0.01875 0  0.1125 0.01875 0  0.11875 0.01875 0  0.125 0.01875 0  0.13125 0.01875 0  0.1375 0.01875 0  0.14375 0.01875 0  0.15 0.01875 0  0.15625 0.01875 0  0.1625 0.01875 0  0.16875 0.01875 0  0.175 0.01875 0  0.18125 0.01875 0  0.1875 0.01875 0  0.19375 0.01875 0  0.2 0.01875 0  0.20625 0.01875 0  0.2125 0.01875 0  0.21875 0.01875 0  0.225 0.01875 0  0.23125 0.01875 0  0.2375 0.01875 0  0.24375 0.01875 0  0.25 0.01875 0  0.25625 0.01875 0  0.2625 0.01875 0  0.26875 0.01875 0  0.275 0.01875 0  0.28125 0.01875 0  0.2875 0.01875 0  0.29375 0.01875 0  0.3 0.01875 0  0.30625 0.01875 0  0.3125 0.01875 0  0.31875 0.01875 0  0.325 0.01875 0  0.33125 0.01875 0  0.3375 0.01875 0  0.34375 0.01875 0  0.35 0.01875 0  0.35625 0.01875 0  0.3625 0.01875 0  0.36875 0.01875 0  0.375 0.01875 0  0.38125 0.01875 0  0.3875 0.01875 0  0.39375 0.01875 0  0.4 0.01875 0  0.40625 0.01875 0  0.4125 0.01875 0  0.41875 0.01875 0  0.425 0.01875 0  0.43125 0.01875 0  0.4375 0.01875 0  0.44375 0.01875 0  0.45 0.01875 0  0.45625 0.01875 0  0.4625 0.01875 0  0.46875 0.01875 0  0.475 0.01875 0  0.48125 0.01875 0  0.4875 0.01875 0  0.49375 0.01875 0  0.5 0.01875 0  0.50625 0.01875 0  0.5125 0.01875 0  0.51875 0.01875 0  0.525 0.01875 0  0.53125 0.01875 0  0.5375 0.01875 0  0.54375 0.01875 0  0.55 0.01875 0  0.55625 0.01875 0  0.5625 0.01875 0  0.56875 0.01875 0  0.575 0.01875 0  0.58125 0.01875 0  0.5875 0.01875 0  0.59375 0.01875 0  0.6 0.01875 0  0.60625 0.01875 0  0.6125 0.01875 0  0.61875 0.01875 0  0.625 0.01875 0  0.63125 0.01875 0  0.6375 0.01875 0  0.64375 0.01875 0  0.65 0.01875 0  0.65625 0.01875 0  0.6625 0.01875 0  0.66875 0.01875 0  0.675 0.01875 0  0.68125 0.01875 0  0.6875 0.01875 0  0.69375 0.01875 0  0.7 0.01875 0  0.70625 0.01875 0  0.7125 0.01875 0  0.71875 0.01875 0  0.725 0.01
[...]
<PointData  Vectors="f_10"> 
<DataArray  type="Float64"  Name="f_10"  NumberOfComponents="3" format="ascii">0.0000000000000000e+00 0.0000000000000000e+00 0.0000000000000000e+00  3.9062500000000009e-06 0.0000000000000000e+00 0.0000000000000000e+00  1.5625000000000004e-05 0.0000000000000000e+00 0.0000000000000000e+00  3.5156249999999997e-05 0.0000000000000000e+00 0.0000000000000000e+00  6.2500000000000015e-05 0.0000000000000000e+00 0.0000000000000000e+00  9.7656250000000005e-05 0.0000000000000000e+00 0.0000000000000000e+00  1.4062499999999999e-04 0.0000000000000000e+00 0.0000000000000000e+00  1.9140624999999998e-04 0.0000000000000000e+00 0.0000000000000000e+00  2.5000000000000006e-04 0.0000000000000000e+00 0.0000000000000000e+00  3.1640625000000006e-04 0.0000000000000000e+00 0.0000000000000000e+00  3.9062500000000002e-04 0.0000000000000000e+00 0.0000000000000000e+00  4.7265625000000009e-04 0.0000000000000000e+00 0.0000000000000000e+00  5.6249999999999996e-04 0.0000000000000000e+00 0.0000000000000000e+00  6.6015625000000004e-04 0.0000000000000000e+00 0.0000000000000000e+00  7.6562499999999992e-04 0.0000000000000000e+00 0.0000000000000000e+00  8.7890625000000013e-04 0.0000000000000000e+00 0.0000000000000000e+00  1.0000000000000002e-03 0.0000000000000000e+00 0.0000000000000000e+00  1.1289062500000001e-03 0.0000000000000000e+00 0.0000000000000000e+00  1.2656250000000003e-03 0.0000000000000000e+00 0.0000000000000000e+00  1.4101562500000000e-03 0.0000000000000000e+00 0.0000000000000000e+00  1.5625000000000001e-03 0.0000000000000000e+00 0.0000000000000000e+00  1.7226562500000002e-03 0.0000000000000000e+00 0.0000000000000000e+00  1.8906250000000004e-03 0.0000000000000000e+00 0.0000000000000000e+00  2.0664062499999997e-03 0.0000000000000000e+00 0.0000000000000000e+00  2.2499999999999998e-03 0.0000000000000000e+00 0.0000000000000000e+00  2.4414062500000000e-03 0.0000000000000000e+00 0.0000000000000000e+00  2.6406250000000002e-03 0.0000000000000000e+00 0.0000000000000000e+00  2.8476562500000004e-03 0.0000000000000000e+00 0.0000000000000000e+00  3.0624999999999997e-03 0.0000000000000000e+00 0.0000000000000000e+00  3.2851562499999999e-03 0.0000000000000000e+00 0.0000000000000000e+00  3.5156250000000005e-03 0.0000000000000000e+00 0.0000000000000000e+00  3.7539062500000007e-03 0.0000000000000000e+00 0.0000000000000000e+00  4.0000000000000010e-03 0.0000000000000000e+00 0.0000000000000000e+00  4.2539062499999999e-03 0.0000000000000000e+00 0.0000000000000000e+00  4.5156250000000005e-03 0.0000000000000000e+00 0.0000000000000000e+00  4.7851562500000003e-03 0.0000000000000000e+00 0.0000000000000000e+00  5.0625000000000010e-03 0.0000000000000000e+00 0.0000000000000000e+00  5.3476562500000008e-03 0.0000000000000000e+00 0.0000000000000000e+00  5.6406249999999998e-03 0.0000000000000000e+00 0.0000000000000000e+00  5.9414062499999996e-03 0.0000000000000000e+00 0.0000000000000000e+00  6.2500000000000003e-03 0.0000000000000000e+00 0.0000000000000000e+00  6.5664062499999993e-03 0.0000000000000000e+00 0.0000000000000000e+00  6.8906250000000009e-03 0.0000000000000000e+00 0.0000000000000000e+00  7.2226562499999999e-03 0.0000000000000000e+00 0.0000000000000000e+00  7.5625000000000015e-03 0.0000000000000000e+00 0.0000000000000000e+00  7.9101562499999997e-03 0.0000000000000000e+00 0.0000000000000000e+00  8.2656249999999987e-03 0.0000000000000000e+00 0.0000000000000000e+00  8.6289062500000003e-03 0.0000000000000000e+00 0.0000000000000000e+00  8.9999999999999993e-03 0.0000000000000000e+00 0.0000000000000000e+00  9.3789062500000010e-03 0.0000000000000000e+00 0.0000000000000000e+00  9.7656250000000000e-03 0.0000000000000000e+00 0.0000000000000000e+00  1.0160156250000000e-02 0.0000000000000000e+00 0.0000000000000000e+00  1.0562500000000001e-02 0.0000000000000000e+00 0.0000000000000000e+00  1.0972656250000001e-02 0.0000000000000000e+00 0.0000000000000000e+00  1.1390625000000001e-02 0.0000000000000000e+00 0.0000000000000000e+00  1.1816406250000001e-02 0.0000000000000000e+00 0.0000000000000000e+00  1.2249999999999999e-02 0.0000000000000000e+00 0.0000000000000000e+00  1.2691406250000002e-02 0.0000000000000000e+00 0.0000000000000000e+00  1.3140625000000000e-02 0.0000000000000000e+00 0.0000000000000000e+00  1.3597656250000003e-02 0.0000000000000000e+00 0.0000000000000000e+00  1.4062500000000002e-02 0.0000000000000000e+00 0.0000000000000000e+00  1.4535156249999999e-02 0.0000000000000000e+00 0.0000000000000000e+00  1.5015625000000003e-02 0.0000000000000000e+00 0.0000000000000000e+00  1.5503906249999999e-02 0.0000000000000000e+00 0.0000000000000000e+00  1.6000000000000004e-02 0.0000000000000000e+00 0.0000000000000000e+00  1.6503906250000002e-02 0.0000000000000000e+00 0.0000000000000000e+00  1.7015625000000000e-02 0.0000000000000000e+00 0.0000000000000000e+00  1.7535156250000003e-02 0.0000000000000000e+00 0.0000000000000000e+00  1.8062500000000002e-02 0.0000000000000000e+00 0.0000000000000000e+00  1.8597656250000004e-02 0.0000000000000000e+00 0.0000000000000000e+00  1.9140625000000001e-02 0.0000000000000000e+00 0.0000000000000000e+00  1.9691406249999998e-02 0.0000000000000000e+00 0.0000000000000000e+00  2.0250000000000004e-02 0.0000000000000000e+00 0.0000000000000000e+00  2.0816406249999999e-02 0.0000000000000000e+00 0.0000000000000000e+00  2.1390625000000003e-02 0.0000000000000000e+00 0.0000000000000000e+00  2.1972656250000000e-02 0.0000000000000000e+00 0.0000000000000000e+00  2.2562499999999999e-02 0.0000000000000000e+00 0.0000000000000000e+00  2.3160156250000001e-02 0.0000000000000000e+00 0.0000000000000000e+00  2.3765624999999999e-02 0.0000000000000000e+00 0.0000000000000000e+00  2.4378906250000002e-02 0.0000000000000000e+00 0.0000000000000000e+00  2.5000000000000001e-02 0.0000000000000000e+00 0.0000000000000000e+00  2.5628906250000000e-02 0.0000000000000000e+00 0.0000000000000000e+00  2.6265624999999997e-02 0.0000000000000000e+00 0.0000000000000000e+00  2.6910156250000004e-02 0.0000000000000000e+00 0.0000000000000000e+00  2.7562500000000004e-02 0.0000000000000000e+00 0.0000000000000000e+00  2.8222656250000002e-02 0.0000000000000000e+00 0.0000000000000000e+00  2.8890625000000000e-02 0.0000000000000000e+00 0.0000000000000000e+00  2.9566406249999996e-02 0.0000000000000000e+00 0.0000000000000000e+00  3.0250000000000006e-02 0.0000000000000000e+00 0.0000000000000000e+00  3.0941406250000004e-02 0.0000000000000000e+00 0.0000000000000000e+00  3.1640624999999999e-02 0.0000000000000000e+00 0.0000000000000000e+00  3.2347656250000002e-02 0.0000000000000000e+00 0.0000000000000000e+00  3.3062499999999995e-02 0.0000000000000000e+00 0.0000000000000000e+00  3.3785156250000010e-02 0.0000000000000000e+00 0.0000000000000000e+00  3.4515625000000001e-02 0.0000000000000000e+00 0.0000000000000000e+00  3.5253906250000001e-02 0.0000000000000000e+00 0.0000000000000000e+00  3.5999999999999997e-02 0.0000000000000000e+00 0.0000000000000000e+00  3.6753906249999996e-02 0.0000000000000000e+00 0.0000000000000000e+00  3.7515625000000004e-02 0.0000000000000000e+00 0.0000000000000000e+00  3.8285156250000008e-02 0.0000000000000000e+00 0.0000000000000000e+00  3.9062500000000000e-02 0.0000000000000000e+00 0.0000000000000000e+00  3.9847656250000002e-02 0.0000000000000000e+00 0.0000000000000000e+00  4.0640625000000000e-02 0.0000000000000000e+00 0.0000000000000000e+00  4.1441406250000007e-02 0.0000000000000000e+00 0.0000000000000000e+00  4.2250000000000003e-02 0.0000000000000000e+00 0.0000000000000000e+00  4.3066406250000001e-02 0.0000000000000000e+00 0.0000000000000000e+00  4.3890625000000003e-02 0.0000000000000000e+00 0.0000000000000000e+00  4.4722656249999999e-02 0.0000000000000000e+00 0.0000000000000000e+00  4.5562500000000006e-02 0.0000000000000000e+00 0.0000000000000000e+00  4.6410156250000008e-02 0.0000000000000000e+00 0.0000000000000000e+00  4.7265625000000006e-02 0.0000000000000000e+00 0.0000000000000000e+00  4.8128906250000006e-02 0.0000000000000000e+00 0.0000000000000000e+00  4.8999999999999995e-02 0.0000000000000000e+00 0.0000000000000000e+00  4.9878906250000007e-02 0.0000000000000000e+00 0.0000000000000000e+00  5.0765625000000009e-02 0.0000000000000000e+00 0.0000000000000000e+00  5.1660156250000006e-02 0.0000000000000000e+00 0.0000000000000000e+00  5.2562499999999998e-02 0.0000000000000000e+00 0.0000000000000000e+00  5.3472656249999993e-02 0.0000000000000000e+00 0.0000000000000000e+00  5.4390625000000012e-02 0.0000000000000000e+00 0.0000000000000000e+00  5.5316406250000012e-02 0.0000000000000000e+00 0.0000000000000000e+00  5.6250000000000008e-02 0.0000000000000000e+00 0.0000000000000000e+00  5.7191406250000000e-02 0.0000000000000000e+00 0.0000000000000000e+00  5.8140624999999994e-02 0.0000000000000000e+00 0.0000000000000000e+00  5.9097656250000012e-02 0.0000000000000000e+00 0.0000000000000000e+00  6.0062500000000012e-02 0.0000000000000000e+00 0.0000000000000000e+00  6.1035156250000000e-02 0.0000000000000000e+00 0.0000000000000000e+00  6.2015624999999998e-02 0.0000000000000000e+00 0.0000000000000000e+00  6.3003906249999991e-02 0.0000000000000000e+00 0.0000000000000000e+00  6.4000000000000015e-02 0.0000000000000000e+00 0.0000000000000000e+00  6.5003906250000007e-02 0.0000000000000000e+00 0.0000000000000000e+00  6.6015625000000008e-02 0.0000000000000000e+00 0.0000000000000000e+00  6.7035156250000005e-02 0.0000000000000000e+00 0.0000000000000000e+00  6.8062499999999998e-02 0.0000000000000000e+00 0.0000000000000000e+00  6.9097656250000014e-02 0.0000000000000000e+00 0.0000000000000000e+00  7.0140625000000012e-02 0.0000000000000000e+00 0.0000000000000000e+00  7.1191406250000006e-02 0.0000000000000000e+00 0.0000000000000000e+00  7.2250000000000009e-02 0.0000000000000000e+00 0.0000000000000000e+00  7.3316406250000007e-02 0.0000000000000000e+00 0.0000000000000000e+00  7.4390625000000016e-02 0.0000000000000000e+00 0.0000000000000000e+00  7.5472656250000006e-02 0.0000000000000000e+00 0.0000000000000000e+00  7.6562500000000006e-02 0.0000000000000000e+00 0.0000000000000000e+00  7.7660156250000001e-02 0.0000000000000000e+00 0.0000000000000000e+00  7.8765624999999992e-02 0.0000000000000000e+00 0.0000000000000000e+00  7.9878906250000006e-02 0.0000000000000000e+00 0.0000000000000000e+00  8.1000000000000016e-02 0.0000000000000000e+00 0.0000000000000000e+00  8.2128906250000008e-02 0.0000000000000000e+00 0.0000000000000000e+00  8.3265624999999996e-02 0.0000000000000000e+00 0.0000000000000000e+00  8.4410156249999993e-02 0.0000000000000000e+00 0.0000000000000000e+00  8.5562500000000014e-02 0.0000000000000000e+00 0.0000000000000000e+00  8.6722656250000016e-02 0.0000000000000000e+00 0.0000000000000000e+00  8.7890625000000000e-02 0.0000000000000000e+00 0.0000000000000000e+00  8.9066406249999994e-02 0.0000000000000000e+00 0.0000000000000000e+00  9.0249999999999997e-02 0.0000000000000000e+00 0.0000000000000000e+00  9.1441406250000024e-02 0.0000000000000000e+00 0.0000000000000000e+00  9.2640625000000004e-02 0.0000000000000000e+00 0.0000000000000000e+00  9.3847656250000008e-02 0.0000000000000000e+00 0.0000000000000000e+00  9.5062499999999994e-02 0.0000000000000000e+00 0.0000000000000000e+00  9.6285156250000004e-02 0.0000000000000000e+00 0.0000000000000000e+00  9.7515625000000009e-02 0.0000000000000000e+00 0.0000000000000000e+00  9.8753906250000009e-02 0.0000000000000000e+00 0.0000000000000000e+00  1.0000000000000001e-01 0.0000000000000000e+00 0.0000000000000000e+00  0.0000000000000000e+00 0.0000000000000000e+00 0.0000000000000000e+00  3.9479937967032187e-06 4.1627206825448151e-08 0.0000000000000000e+00  1.5675290848807124e-05 4.3799791847092628e-08 0.0000000000000000e+00  3.5212294971399026e-05 4.4993249377529494e-08 0.0000000000000000e+00  6.2560142122864134e-05 4.5666174197773600e-08 0.0000000000000000e+00  9.7719444065162643e-05 4.6036263832500599e-08 0.0000000000000000e+00  1.4069055670312485e-04 4.6216635298212649e-08 0.0000000000000000e+00  1.9147370005056775e-04 4.6270982898060090e-08 0.0000000000000000e+00  2.5006901653653208e-04 4.6237680689520193e-08 0.0000000000000000e+00  3.1647660161079037e-04 4.6141156681809489e-08 0.0000000000000000e+00  3.9069652092125167e-04 4.5997665544752519e-08 0.0000000000000000e+00  4.7272882050882809e-04 4.5818417135690169e-08 0.0000000000000000e+00  5.6257353314000808e-04 4.5611371751081458e-08 0.0000000000000000e+00  6.6023068238749974e-04 4.5382321508148864e-08 0.0000000000000000e+00  7.6570028533899594e-04 4.5135569004799685e-08 0.0000000000000000e+00  8.7898235443917391e-04 4.4874368044350275e-08 0.0000000000000000e+00  1.0000768987673998e-03 4.4601218318627802e-08 0.0000000000000000e+00  1.1289839249387556e-03 4.4318067303039383e-08 0.0000000000000000e+00  1.2657034377483642e-03 4.4026451577510142e-08 0.0000000000000000e+00  1.4102354406376259e-03 4.3727597556234824e-08 0.0000000000000000e+00  1.5625799360350842e-03 4.3422494469458537e-08 0.0000000000000000e+00  1.7227369256078411e-03 4.3111948008366852e-08 0.0000000000000000e+00  1.8907064104484652e-03 4.2796620263802847e-08 0.0000000000000000e+00  2.0664883912149129e-03 4.2477059824491315e-08 0.0000000000000000e+00  2.2500828682358960e-03 4.2153724683212182e-08 0.0000000000000000e+00  2.4414898415907010e-03 4.1826999890633456e-08 0.0000000000000000e+00  2.6407093111699047e-03 4.1497211248753276e-08 0.0000000000000000e+00  2.8477412767217792e-03 4.1164636031991384e-08 0.0000000000000000e+00  3.0625857378879006e-03 4.0829511476625699e-08 0.0000000000000000e+00  3.2852426942305449e-03 4.0492041550477428e-08 0.0000000000000000e+00  3.5157121452538014e-03 4.0152402355545776e-08 0.0000000000000000e+00  3.7539940904199251e-03 3.9810746522351868e-08 0.0000000000000000e+00  4.0000885291619857e-03 3.9467206789198356e-08 0.0000000000000000e+00  4.2539954608936505e-03 3.9121898920460736e-08 0.0000000000000000e+00  4.5157148850167826e-03 3.8774924121590544e-08 0.0000000000000000e+00  4.7852468009273036e-03 3.8426371053843911e-08 0.0000000000000000e+00  5.0625912080197117e-03 3.8076317491528655e-08 0.0000000000000000e+00  5.3477481056905824e-03 3.7724831748828799e-08 0.0000000000000000e+00  5.6407174933412055e-03 3.7371973850044910e-08 0.0000000000000000e+00  5.9414993703796161e-03 3.7017796546416695e-08 0.0000000000000000e+00  6.2500937362220893e-03 3.6662346168919372e-08 0.0000000000000000e+00  6.5665005902942599e-03 3.6305663375663860e-08 0.0000000000000000e+00  6.8907199320319169e-03 3.5947783771791850e-08 0.0000000000000000e+00  7.2227517608815404e-03 3.5588738457160766e-08 0.0000000000000000e+00  7.5625960763006945e-03 3.5228554514706599e-08 0.0000000000000000e+00  7.9102528777582025e-03 3.4867255408511162e-08 0.0000000000000000e+00  8.2657221647342589e-03 3.4504861355626309e-08 0.0000000000000000e+00  8.6290039367204353e-03 3.4141389633329403e-08 0.0000000000000000e+00  9.0000981932195877e-03 3.3776854864950313e-08 0.0000000000000000e+00  9.3790049337457732e-03 3.3411269262441304e-08 0.0000000000000000e+00  9.7657241578240645e-03 3.3044642838262213e-08 0.0000000000000000e+00  1.0160255864990390e-02 3.2676983609058736e-08 0.0000000000000000e+00  1.0562600054791326e-02 3.2308297756401129e-08 0.0000000000000000e+00  1.0972756726783869e-02 3.1938589783274088e-08 0.0000000000000000e+00  1.1390725880535250e-02 3.1567862639171615e-08 0.0000000000000000e+00  1.1816507515622686e-02 3.1196117865482937e-08 0.0000000000000000e+00  1.2250101631633188e-02 3.0823355684800596e-08 0.0000000000000000e+00  1.2691508228163348e-02 3.0449575089495415e-08 0.0000000000000000e+00  1.3140727304819126e-02 3.0074773957122025e-08 0.0000000000000000e+00  1.3597758861215690e-02 2.9698949106253686e-08 0.0000000000000000e+00  1.4062602896977205e-02 2.9322096375720079e-08 0.0000000000000000e+00  1.4535259411736699e-02 2.8944210686727825e-08 0.0000000000000000e+00  1.5015728405135901e-02 2.8565286096169338e-08 0.0000000000000000e+00  1.5504009876825110e-02 2.8185315855604433e-08 0.0000000000000000e+00  1.6000103826463091e-02 2.7804292450541764e-08 0.0000000000000000e+00  1.6504010253716946e-02 2.7422207655686076e-08 0.0000000000000000e+00  1.7015729158262074e-02 2.7039052540374289e-08 0.0000000000000000e+00  1.7535260539782081e-02 2.6654817545702281e-08 0.0000000000000000e+00  1.8062604397968727e-02 2.6269492484119252e-08 0.0000000000000000e+00  1.8597760732521933e-02 2.5883066581274675e-08 0.0000000000000000e+00  1.9140729543149739e-02 2.5495528488254911e-08 0.0000000000000000e+00  1.9691510829568343e-02 2.5106866321358879e-08 0.0000000000000000e+00  2.0250104591502120e-02 2.4717067658293043e-08 0.0000000000000000e+00  2.0816510828683674e-02 2.4326119597141946e-08 0.0000000000000000e+00  2.1390729540853918e-02 2.3934008709168154e-08 0.0000000000000000e+00  2.1972760727762171e-02 2.3540721119137890e-08 0.0000000000000000e+00  2.2562604389166255e-02 2.3146242465940084e-08 0.0000000000000000e+00  2.3160260524832676e-02 2.2750557957013688e-08 0.0000000000000000e+00  2.3765729134536711e-02 2.2353652335219507e-08 0.0000000000000000e+00  2.4379010218062672e-02 2.1955509917173953e-08 0.0000000000000000e+00  2.5000103775204060e-02 2.1556114594863193e-08 0.0000000000000000e+00  2.5629009805763808e-02 2.1155449833995410e-08 0.0000000000000000e+00  2.6265728309554551e-02 2.0753498690979919e-08 0.0000000000000000e+00  2.6910259286398886e-02 2.0350243803078080e-08 0.0000000000000000e+00  2.7562602736129670e-02 1.9945667403945190e-08 0.0000000000000000e+00  2.8222758658590384e-02 1.9539751330157427e-08 0.0000000000000000e+00  2.8890727053635473e-02 1.9132477000052965e-08 0.0000000000000000e+00  2.9566507921130743e-02 1.8723825446934529e-08 0.0000000000000000e+00  3.0250101260953784e-02 1.8313777303001975e-08 0.0000000000000000e+00  3.0941507072994364e-02 1.7902312798692212e-08 0.0000000000000000e+00  3.1640725357155002e-02 1.7489411771121048e-08 0.0000000000000000e+00  3.2347756113351417e-02 1.7075053659233030e-08 0.0000000000000000e+00  3.3062599341513094e-02 1.6659217519672776e-08 0.0000000000000000e+00  3.3785255041583889e-02 1.6241881977837134e-08 0.0000000000000000e+00  3.4515723213522587e-02 1.5823025312744291e-08 0.0000000000000000e+00  3.5254003857303644e-02 1.5402625355012193e-08 0.0000000000000000e+00  3.6000096972917846e-02 1.4980659578063380e-08 0.0000000000000000e+00  3.6754002560373075e-02 1.4557105029068265e-08 0.0000000000000000e+00  3.7515720619695096e-02 1.4131938375735739e-08 0.0000000000000000e+00  3.8285251150928366e-02 1.3705135870763994e-08 0.0000000000000000e+00  3.9062594154136994e-02 1.3276673387566647e-08 0.0000000000000000e+00  3.9847749629405647e-02 1.2846526363635304e-08 0.0000000000000000e+00  4.0640717576840582e-02 1.2414669881758161e-08 0.0000000000000000e+00  4.1441497996570716e-02 1.1981078591717151e-08 0.0000000000000000e+00  4.2250090888748711e-02 1.1545726749082244e-08 0.0000000000000000e+00  4.3066496253552286e-02 1.1108588215565000e-08 0.0000000000000000e+00  4.3890714091185432e-02 1.0669636461813433e-08 0.0000000000000000e+00  4.4722744401879809e-02 1.0228844551666174e-08 0.0000000000000000e+00  4.5562587185896224e-02 9.7861851620131715e-09 0.0000000000000000e+00  4.6410242443526116e-02 9.3416305665406202e-09 0.0000000000000000e+00  4.7265710175093359e-02 8.8951526775205284e-09 0.0000000000000000e+00  4.8128990380955937e-02 8.4467229987932929e-09 0.0000000000000000e+00  4.9000083061507903e-02 7.9963126763998089e-09 0.0000000000000000e+00  4.9878988217181425e-02 7.5438924605636929e-09 0.0000000000000000e+00  5.0765705848448958e-02 7.0894327638179657e-09 0.0000000000000000e+00  5.1660235955825688e-02 6.6329036303464571e-09 0.0000000000000000e+00  5.2562578539872049e-02 6.1742747524680723e-09 0.0000000000000000e+00  5.3472733601196483e-02 5.7135154830502985e-09 0.0000000000000000e+00  5.4390701140458492e-02 5.2505948565028895e-09 0.0000000000000000e+00  5.5316481158371823e-02 4.7854816071313499e-09 0.0000000000000000e+00  5.6250073655708076e-02 4.3181441550573937e-09 0.0000000000000000e+00  5.7191478633300527e-02 3.8485506476067482e-09 0.0000000000000000e+00  5.8140696092048381e-02 3.3766689852295004e-09 0.0000000000000000e+00  5.9097726032