<?xml version="1.0"?>
<VTKFile type="UnstructuredGrid"  version="0.1"  >
<UnstructuredGrid>
<Piece  NumberOfPoints="1012" NumberOfCells="4324">
<Points>
<DataArray  type="Float64"  NumberOfComponents="3"  format="ascii">9.934620869223124 3.893722256974707 3.20251320624355  9.866795192279152 3.921606578204871 3.113111358860062  9.826582413044678 3.86458465614687 3.249921202810234  9.822477909236369 3.91807358628391 3.271212235507683  9.860356257996092 3.973502932433574 3.132112009068786  9.92861826726979 3.946112066927183 3.224184323330544  9.818308047458123 3.971630877699502 3.292627886642588  9.853887762680918 4.025496044157539 3.151221112458557  9.922588942366817 3.998595693256586 3.245949656945938  9.81410229740287 4.02530509878747 3.314121361652903  9.847397976414888 4.077626474464172 3.170401935992226  9.916536521435074 4.051206812301688 3.267784093565078  9.809894438500972 4.079114304890538 3.3356409917651  9.84088936705289 4.129918753222813 3.189617716990079  9.910473769699379 4.103966600286645 3.289658899093128  9.805723444980469 4.133075608001336 3.357139265101383  9.834372912078761 4.182405509270577 3.208828018052984  9.904421796193928 4.15690422491158 3.311543053633461  9.801661441440991 4.187206364227761 3.378551975459983  9.827879006177616 4.23512901959733 3.227986887845084  9.898403936491572 4.210069561502609 3.333407740142931  10.06552139815354 4.208937317655034 2.460435624898474  9.972242923280124 4.203500142649458 2.389095435010698  9.993371518633724 4.166142787080622 2.521888869580193  9.978560644805228 4.215590518788404 2.539418242970495  9.957496185879299 4.254794096028794 2.405266654502211  10.04847156260536 4.258937214260218 2.477564651819143  9.963903576996808 4.265253353706453 2.556925450555786  9.94293793522008 4.306288817212056 2.421375563098602  10.03166980001423 4.309151250777934 2.494633203480846  9.949295436024798 4.315072656904184 2.574465019664328  9.928461827159362 4.357925747170635 2.437477315512843  10.01498004453633 4.359486156269657 2.511688079170728  9.934634447817656 4.364995237459078 2.592062935217701  9.91395824297026 4.409646340341578 2.453618258555241  9.998269512404418 4.409874667952599 2.528767180600064  9.919798983180184 4.414985668374674 2.609759453949234  9.899298226666046 4.461411898273467 2.469849154319107  9.981390950324288 4.460258395222936 2.545906704881471  9.904649060142438 4.465020966142552 2.627596421891976  9.884329333028059 4.513219283260906 2.486234665370487  9.964117660723936 4.510587543223423 2.563165079338934  8.987591692058965 3.847146714848024 3.054437152995741  8.938308606269832 3.869509059736925 2.963256761118864  8.896527013464288 3.825852286775401 3.101628448577795  8.892515603372233 3.878431044328029 3.115853191099767  8.93408000014438 3.92021297714988 2.978987093091362  8.982994217993078 3.898981413613638 3.069034684712581  8.978473352321386 3.95095282094022 3.08373368533469  8.929925716709658 3.97111500184896 2.994779615506154  8.888590787016541 3.931217799346595 3.130214861599225  8.974006646934336 4.003132814828959 3.098498755972897  8.925810203751551 4.022218088025737 3.010629539438528  8.884729225248314 3.984218122616571 3.144651517136657  8.96953537170085 4.055529910560666 3.113304315932727  8.921685499713199 4.073544495789157 3.026540819790161  8.88087766539191 4.037455988452161 3.159121980107157  8.965012167813233 4.10816858655315 3.128122563065066  8.917504387358493 4.125136224547095 3.042525043351042  8.876974048227517 4.090964005662689 3.173590004504922  8.913205175866649 4.177015785935831 3.058568706588044  8.960366753043406 4.161118729546361 3.142909829174596  8.973520021082338 3.942939582164623 2.761174704851625  8.919437161971761 3.973172598385624 2.664763798342906  8.850000488309339 3.924430951421513 2.77700045749684  8.845558936027526 3.974246134588466 2.794653993755094  8.914166478567155 4.023139872836157 2.683635033795931  8.968496262255448 3.992509072475547 2.779410391332544  8.963549666110868 4.042255946091477 2.79758731486911  8.908980749828478 4.073339856758101 2.70239775104662  8.841212600020709 4.024305650680372 2.812261683004634  8.958618594348721 4.092194028826115 2.815810582417105  8.903804985710346 4.123712351629403 2.721188720606563  8.836894168489238 4.074569616046895 2.829906045595228  8.953672894035131 4.142305310517072 2.83412099183176  8.898603822019675 4.174241179737948 2.74008187731194  8.832556856507283 4.125039009432236 2.847645875211998  8.828154626954319 4.17570064699957 2.865540116899665  8.893343848974583 4.224892920708889 2.759144583969554  8.948665184007591 4.192616678837588 2.852583469980953  8.887972614817221 4.27563985573046 2.778454943097415  8.943545650576706 4.243084699946415 2.871261481109642  8.91969193935979 3.903739148817139 2.853349498971146  8.91514730212038 3.953532003266118 2.870435668089378  8.910680143292728 4.003566914142301 2.887523943345037  8.906236428437648 4.05380924853706 2.904661833501768  8.901776005392803 4.10425729769339 2.921880057969638  8.897260402694561 4.154914808381353 2.939207644853848  8.892628173690408 4.205789038705409 2.956705871656081  9.733437488808706 3.8859869902793 3.175477467232727  9.728467981459573 3.939157589068572 3.193841997950252  9.723445801632922 3.992429272785077 3.212367301305956  9.71840565148932 4.045819057188343 3.230965429207924  9.713359098090345 4.099359828811988 3.249581687477798  9.708325560667133 4.153078706484415 3.268160037083971  9.703345252139803 4.207000211139617 3.28663389615714  8.798755602450578 3.892653072206757 3.038368010073994  8.795622144649553 3.944544934728655 3.053242507970128  8.792541187855146 3.996672940811393 3.068180280852149  8.789471949704728 4.049060976350285 3.083166144770087  9.873732927403314 4.148008157836672 2.474690900669974  9.861480362717664 4.198043321843594 2.49192457935491  9.849326280970676 4.248314970390728 2.509143970986769  9.837192361717957 4.298749474892071 2.526401981220737  9.825013768110258 4.349325922937538 2.543732231741408  9.812710836826236 4.400043003851473 2.561181715470424  9.800143338993369 4.450924067701028 2.578829671517043  9.942172703320498 4.118202327839835 2.609749586008327  9.928972611767602 4.166752545430362 2.628038485418664  9.915903441568744 4.215519587761015 2.646305786101788  9.902843226935254 4.264449422474853 2.664637323232657  9.889722543007592 4.313519494417461 2.683041805869503  9.876446421022882 4.362723427179293 2.701555893935364  9.862867828744408 4.412054954331477 2.720243290804004  8.832161926925526 3.926352244103224 2.933667442111328  8.828488394984484 3.97702182795335 2.949809705238122  8.824858430285433 4.027933460796423 2.966012486417316  8.821222460450592 4.07908275470528 2.982288292506203  8.817530937503598 4.130487904321829 2.998653197739202  8.813725757204644 4.182173485071072 3.0151302116418  9.18357931560975 3.867788679181837 3.046087376060937  9.18694492255568 3.897398516268535 2.951134610793845  9.066681263218545 3.880311400247725 2.963506500834364  9.061931673973703 3.930787963647303 2.979209910218608  9.181546155430897 3.947700258564688 2.967200022486063  9.178434561793267 3.919323418037863 3.061188308255702  9.057237358918375 3.981442316554628 2.994980847751605  9.176180019198766 3.998164767133289 2.983333900876876  9.173327772661684 3.97097294076334 3.076396550226152  9.052567083692338 4.032290452785462 3.01080647613966  9.170826642119618 4.048795561992166 2.99952618442626  9.168247143545814 4.022787634692969 3.091668788111551  9.047884406071102 4.083330411320728 3.026684162623194  9.165460895807737 4.099607284900658 3.015767892996724  9.163156357116385 4.074782827096636 3.106975826829412  9.043152196394562 4.134573197783848 3.042604291277461  9.160051344953406 4.150626127627701 3.032047869352436  9.15801788772997 4.12698551250732 3.122280010074732  9.038337343983169 4.186037952927058 3.058552069055926  9.154530195118271 4.201909586786296 3.048353545352988  9.152781483108278 4.179444858907619 3.137526914383323  9.073266668921367 3.841860796202227 3.10277056542496  9.068501266360897 3.894222724167402 3.117272999195102  9.063798792679922 3.946769876453678 3.131919420190175  9.059139442680729 3.999488092995556 3.146630531679375  9.054478295309535 4.052402704818421 3.161371491288692  9.049765900810973 4.105545445780622 3.176095664691188  9.044935877265079 4.15896137183087 3.190737927029632  9.830556882972415 4.101022932493454 2.577747189695471  9.820265245075788 4.15019931443439 2.595290005612278  9.810042997909045 4.199604793490246 2.612824755261606  9.799806786226959 4.249175310956118 2.630422342287006  9.789515107505199 4.298906972125387 2.648101014882582  9.779112838930967 4.348811333285667 2.66589523634604  9.768520603652348 4.398956934089937 2.683869879727113  9.702066418918973 3.841612499042899 3.291075545135962  9.698710200071282 3.896068389725145 3.312082306430403  9.695289455555711 3.950570906584211 3.333247316604064  9.691845807416911 4.005163339465087 3.354484322292863  9.688405811907712 4.059875938210041 3.375735357634978  9.685001890295512 4.114720220883017 3.396944830243796  9.681679380716313 4.169690599006884 3.41804236177889  9.431971412307023 3.871738912298978 3.122321823732471  9.402461710946675 3.900016429560717 3.014274995088599  9.299294953563971 3.863232192865442 3.102398589166074  9.29399211506529 3.915534337633174 3.117487271003535  9.397147666343164 3.95123839136217 3.029787025243602  9.426556147349107 3.924449704779405 3.137879762827664  9.288716523469603 3.967961812084451 3.132720437783107  9.391823163681929 4.002580704710464 3.045423068031661  9.421138096845757 3.977249839388666 3.153590921304364  9.283452918751399 4.020532131605276 3.148031278943312  9.386493967904107 4.054073585507776 3.061128763671982  9.415726011862114 4.03018108076586 3.169371148597917  9.278180655718979 4.073262200114249 3.163365545706246  9.381152701606291 4.105736560095394 3.076864896680991  9.410306156158804 4.083265926438486 3.185165819263784  9.27287330665653 4.126168454709107 3.178667671317862  9.375787316337023 4.157593295435588 3.092588617
[...]
<PointData  Vectors="f_16"> 
<DataArray  type="Float64"  Name="f_16"  NumberOfComponents="3" format="ascii">-5.4445488526875627e-02 1.1855047144492153e-01 9.2514686457386471e-03  -5.5873905011574215e-02 1.3189732995052650e-01 1.4748816704607891e-02  -5.1185883764821548e-02 1.1399192250292144e-01 7.8115582185354073e-03  -4.9712865414436869e-02 1.1049241554394426e-01 1.5191939213986603e-02  -5.4001722881896870e-02 1.2985138464531953e-01 2.1365706514512979e-02  -5.2861369901877592e-02 1.1549559172515801e-01 1.6198179873477835e-02  -4.8331264058747048e-02 1.0715187102417127e-01 2.1901132495362026e-02  -5.2302422734082428e-02 1.2767112664178243e-01 2.7266113642359171e-02  -5.1305058075445255e-02 1.1253709029485426e-01 2.2475910667869217e-02  -4.6981871076270422e-02 1.0377476746352690e-01 2.8285684857249076e-02  -5.0778741273363563e-02 1.2522802022449198e-01 3.2756009871079329e-02  -4.9795701985988906e-02 1.0945674707079138e-01 2.8397217114083915e-02  -4.5629846017664587e-02 1.0018378701806689e-01 3.4670247049035416e-02  -4.9225150189960591e-02 1.2236638347376327e-01 3.8175526972236661e-02  -4.8283612706271253e-02 1.0611006251298463e-01 3.4276541734195559e-02  -4.4239437291594796e-02 9.6243781954062649e-02 4.1342107004315058e-02  -4.7595786214112187e-02 1.1898980602781130e-01 4.3787593029667872e-02  -4.6733413767455607e-02 1.0236747711675644e-01 4.0393876483456104e-02  -4.2793267015103470e-02 9.1828144434690062e-02 4.8589602261981231e-02  -4.5866005248356621e-02 1.1501032038334742e-01 4.9864263325353396e-02  -4.5126145953023729e-02 9.8094299582941649e-02 4.7023566880111146e-02  -6.3828504596056532e-02 1.4779031108719121e-01 2.9054068147525900e-02  -6.2022162543101389e-02 1.4728460363629770e-01 3.0037582521679079e-02  -6.3845931824803040e-02 1.5334276030154118e-01 3.0338910068764508e-02  -6.1411095792894423e-02 1.5543661739153528e-01 2.9673307752048010e-02  -5.9857189325753860e-02 1.4962485483115609e-01 2.7468295337873483e-02  -6.1465543925072863e-02 1.5003944667725094e-01 2.7523874875853668e-02  -5.9597945949749112e-02 1.5682526502129998e-01 2.8638097501901293e-02  -5.8272759820775004e-02 1.5125578312493973e-01 2.4721619700683220e-02  -5.9702389867087743e-02 1.5159335596488979e-01 2.5694535110766043e-02  -5.7938352846036510e-02 1.5764578635365531e-01 2.7336575927423244e-02  -5.6711092301784768e-02 1.5236057303687600e-01 2.1844540538074241e-02  -5.8011584141992617e-02 1.5261884112382965e-01 2.3666042437978752e-02  -5.6124624421409273e-02 1.5797778248499886e-01 2.5789463754874283e-02  -5.5021083756023832e-02 1.5302339799724765e-01 1.8746906235347836e-02  -5.6157225845171070e-02 1.5320550662050350e-01 2.1416717198603642e-02  -5.4101372600415885e-02 1.5786571934354679e-01 2.3906442074320838e-02  -5.3160184686958281e-02 1.5330196830915299e-01 1.5308016933232986e-02  -5.4097092704725014e-02 1.5341530369372794e-01 1.8853994501569125e-02  -5.1806194795731633e-02 1.5736596050022800e-01 2.1609089990888869e-02  -5.1076854097813457e-02 1.5323289712354546e-01 1.1399653288035031e-02  -5.1759551080846102e-02 1.5324624625987154e-01 1.5859107285763455e-02  -3.4113207295871639e-02 1.5148458131739359e-01 1.8449066906375579e-02  -3.3567710664182515e-02 1.6112428425887718e-01 2.2282530629802903e-02  -3.0647788689479427e-02 1.4446861781813278e-01 1.5715942610512412e-02  -3.1361472968240288e-02 1.4318946214291878e-01 2.2890397139367736e-02  -3.3993037446173893e-02 1.6063004292508973e-01 2.8077908782808168e-02  -3.4435933029070054e-02 1.5048895339947974e-01 2.5270810361855925e-02  -3.4814203357891954e-02 1.4906607782176043e-01 3.1330909626346513e-02  -3.4599111544695277e-02 1.5963331558815821e-01 3.3113059091719049e-02  -3.1931175269284212e-02 1.4154758421270514e-01 2.9390694935559892e-02  -3.5102070608750244e-02 1.4714149726098777e-01 3.6987860980302073e-02  -3.5091065325207331e-02 1.5804435972070624e-01 3.7758761137031326e-02  -3.2400807848692890e-02 1.3947827522113435e-01 3.5491947546077957e-02  -3.5325346852048176e-02 1.4462441817223873e-01 4.2477429201045205e-02  -3.5501258990104083e-02 1.5578886598307889e-01 4.2184254505274056e-02  -3.2810312846142803e-02 1.3688601237851097e-01 4.1464993726129835e-02  -3.5504594706204533e-02 1.4136614841983014e-01 4.8051358895204239e-02  -3.5858876883472328e-02 1.5273195363899492e-01 4.6565080254999287e-02  -3.3196243969217887e-02 1.3362118802920536e-01 4.7597834763499824e-02  -3.6198005992744427e-02 1.4871361313788722e-01 5.1056123715543446e-02  -3.5639084950357051e-02 1.3720423893350425e-01 5.4049456088470636e-02  -3.7237055167279487e-02 1.7543092410763431e-01 3.0623705960671380e-02  -3.6506261220730175e-02 1.7684785043299664e-01 3.2701090175248228e-02  -3.2835045352130700e-02 1.7314422494183476e-01 2.9096512465917240e-02  -3.3506571709215033e-02 1.7369204491261653e-01 3.2425561025310579e-02  -3.6872908087640557e-02 1.7809698198979804e-01 3.4301987977809624e-02  -3.7432937111708045e-02 1.7612878769578411e-01 3.3705412854530298e-02  -3.7991308752901180e-02 1.7610993970421204e-01 3.6104245823369296e-02  -3.7619251619813117e-02 1.7856812397536106e-01 3.5323101185953110e-02  -3.4445213368246665e-02 1.7360244713423681e-01 3.5068123004655408e-02  -3.8469337368402245e-02 1.7535570360333461e-01 3.8114601685422300e-02  -3.8264658549111222e-02 1.7827873591353779e-01 3.5984582127431483e-02  -3.5256755661515093e-02 1.7281828838727406e-01 3.7349736197799681e-02  -3.8856487856281985e-02 1.7385945547133544e-01 3.9776451824840436e-02  -3.8812014241972760e-02 1.7726602436704680e-01 3.6265282821622030e-02  -3.5977755722691372e-02 1.7131212521179531e-01 3.9310238815412832e-02  -3.6664677354634585e-02 1.6902312036933623e-01 4.0945081277408105e-02  -3.9299477056371469e-02 1.7552996902430817e-01 3.6086868421300218e-02  -3.9186352669571468e-02 1.7157350930597259e-01 4.1066691065646428e-02  -3.9752419196785536e-02 1.7303656793162780e-01 3.5324717336367807e-02  -3.9466586028996664e-02 1.6845049213174768e-01 4.1942514332779054e-02  -3.4282259457764967e-02 1.7001580319128293e-01 2.6858792074711337e-02  -3.4707691156777014e-02 1.7015166270355747e-01 3.1248985542190799e-02  -3.5407103735369282e-02 1.6968100507669417e-01 3.4921673963300252e-02  -3.6005001571756144e-02 1.6853897325162609e-01 3.8206384771549119e-02  -3.6516906250803997e-02 1.6668683980915300e-01 4.1202220055605351e-02  -3.6981852945226386e-02 1.6403344930193320e-01 4.3970144490161539e-02  -3.7428349861196919e-02 1.6041740253981468e-01 4.6542750333785680e-02  -5.1514005962185298e-02 1.2677672305258209e-01 1.2738815465246840e-02  -4.9983901195252048e-02 1.2425866249906818e-01 2.0122058058492445e-02  -4.8547937816806816e-02 1.2166189525512996e-01 2.6729262476373385e-02  -4.7224064251776436e-02 1.1883734430080441e-01 3.2954586948624638e-02  -4.5880157613011154e-02 1.1564936539073278e-01 3.9149668471940242e-02  -4.4474188520369599e-02 1.1199143796831705e-01 4.5617019008198326e-02  -4.2970220290893112e-02 1.0779554645417033e-01 5.2670786610527882e-02  -2.9364840466767527e-02 1.5167710602267653e-01 2.4987536635391043e-02  -3.0267954284074028e-02 1.5043505199236051e-01 3.0654718838881385e-02  -3.1046246897374799e-02 1.4870264688697585e-01 3.5945163501445505e-02  -3.1756092759227549e-02 1.4639391686079326e-01 4.1072693910182638e-02  -6.2009883438993642e-02 1.5582427309551042e-01 3.2044549047326849e-02  -5.9747644197909587e-02 1.5808351454981903e-01 3.0675487588064130e-02  -5.8103965466831026e-02 1.5961753292524489e-01 2.9033335718455205e-02  -5.6589885678350250e-02 1.6056154411975174e-01 2.7187508195324173e-02  -5.4972615302950431e-02 1.6098638199678894e-01 2.5093577954931348e-02  -5.3188776952331290e-02 1.6093667093094027e-01 2.2623627180915519e-02  -5.1154986198031251e-02 1.6044958533384315e-01 1.9625736281869914e-02  -6.3916538244068150e-02 1.5759319231144209e-01 3.0595534812821630e-02  -6.1411862688096307e-02 1.5933260327669418e-01 3.1222184746100459e-02  -5.9465193360521001e-02 1.6042803004185466e-01 3.1402776713362411e-02  -5.7808501592019966e-02 1.6092670156686911e-01 3.1254694190920147e-02  -5.6026125295510668e-02 1.6087697150148228e-01 3.0869924931086978e-02  -5.4036566834871493e-02 1.6029604653745538e-01 3.0170677965866383e-02  -5.1740986622509158e-02 1.5923625728708668e-01 2.9042332328805927e-02  -3.1427033781047255e-02 1.6352977452274847e-01 2.8793144370797601e-02  -3.2347979899876950e-02 1.6275696106672724e-01 3.3246627621040969e-02  -3.3131391439853296e-02 1.6138261891948233e-01 3.7343667441569042e-02  -3.3835300995855772e-02 1.5934325953747860e-01 4.1206561376730420e-02  -3.4516442443274967e-02 1.5651765981466673e-01 4.4956144602379060e-02  -3.5232548203345267e-02 1.5271243399873607e-01 4.8704722863148052e-02  -4.0592847071152113e-02 1.5285938519209061e-01 1.9640561266269993e-02  -4.2181149385648618e-02 1.6320502781210106e-01 2.4113992762271483e-02  -3.7986515667691442e-02 1.6205925595702109e-01 2.2890888100211500e-02  -3.7859586600369241e-02 1.6157480279320616e-01 2.8767222812772161e-02  -4.1534660375185183e-02 1.6277899219269346e-01 2.9849819448322216e-02  -4.0083649724985231e-02 1.5183778753417249e-01 2.6478618056003694e-02  -3.8019883386462401e-02 1.6059094670230431e-01 3.3847041356827791e-02  -4.1271161459784440e-02 1.6181067698487733e-01 3.4772027522590100e-02  -3.9843678917487704e-02 1.5039779257013081e-01 3.2477210497143236e-02  -3.8162004018170485e-02 1.5901536883937126e-01 3.8497927129432064e-02  -4.1071248333820774e-02 1.6022909897953980e-01 3.9245800532094553e-02  -3.9614828986745482e-02 1.4842807407011671e-01 3.8040616884454426e-02  -3.8228722852187917e-02 1.5677220263014460e-01 4.2912389758839709e-02  -4.0805447043649724e-02 1.5795944423561981e-01 4.3493944194841178e-02  -3.9323053711879108e-02 1.4584436440788981e-01 4.3441991748770309e-02  -3.8224383471459844e-02 1.5373815659570397e-01 4.7259041423297378e-02  -4.0452313522790627e-02 1.5488325034902270e-01 4.7679257777100914e-02  -3.8942323180348057e-02 1.4251902556224849e-01 4.8929977188031694e-02  -3.8147367995150075e-02 1.4969854294740900e-01 5.1701897359906823e-02  -3.9963444759891872e-02 1.5083029213076554e-01 5.1956895362176153e-02  -3.8431942914600996e-02 1.3827617497016934e-01 5.4813858170909259e-02  -3.6230823878765042e-02 1.4570067254048263e-01 1.6675147872715054e-02  -3.6260912422689258e-02 1.4435546226053786e-01 2.4008385934946311e-02  -3.6342440907061180e-02 1.4265368574706552e-01 3.0563423480246134e-02  -3.6365775622586693e-02 1.4048676215110728e-01 3.6712193464200571e-02  -3.6330294163732922e-02 1.3776403562160960e-01 4.2731388207561866e-02  -3.6234028000988919e-02 1.3435125272726930e-01 4.8917113428586033e-02  -3.6076574735787709e-02 1.3011713367889730e-01 5.5617286068490798e-02  -6.2230320339272095e-02 1.6108843164499442e-01 3.2208674962974471e-02  -5.9846212108025633e-02 1.6297845428428268e-01 3.2356180655196638e-02  -5.8052925742262548e-02 1.6418090637379867e-01 3.2127257473608249e-02  -5.6542736657787487e-02 1.6475811792801592e-01 3.1599422176817840e-02  -5.4940962929165442e-02 1.6476060562259054e-01 3.0821614691364501e-02  -5.3178420758640897e-02 1.6420157630507190e-01 2.9703316529357940e-02  -5.1170907058535713e-02 1.6306379321937040e-01 2.8114879789921440e-02  -4.7706740948849372e-02 1.0993930126184609e-01 6.9816012500185706e-03  -4.6393846350926533e-02 1.0612087961435221e-01 1.4801667262130879e-02  -4.5167730688859931e-02 1.0249837529613134e-01 2.1921922580930429e-02  -4.3980908147201930e-02 9.8879154348555667e-02 2.8754475716523932e-02  -4.2781624257379462e-02 9.5084314102619180e-02 3.5633478600982933e-02  -4.1538431653076385e-02 9.0981612124755445e-02 4.2851681867794512e-02  -4.0235925663866308e-02 8.6480456908780173e-02 5.0682243860817544e-02  -4.6203103171753371e-02 1.4023905658376046e-01 1.6420709870252022e-02  -4.7780743708585857e-02 1.5420951301887989e-01 2.1512289140705687e-02  -4.3037597204454249e-02 1.4476983844231522e-01 1.7218138346219103e-02  -4.2223298873419329e-02 1.4329225781407137e-01 2.4620228189630916e-02  -4.6423377558262743e-02 1.5335964882946920e-01 2.7936744818686059e-02  -4.5027700614520785e-02 1.3852683921783918e-01 2.3916422545052177e-02  -4.1617126707607949e-02 1.4149267998645501e-01 3.1154999386428878e-02  -4.5430351823087557e-02 1.5205974746055231e-01 3.3539678154399344e-02  -4.4068972227274565e-02 1.3654463008573670e-01 3.0563848220231036e-02  -4.1068142093338832e-02 1.3924250692262377e-01 3.7263984985500265e-02  -4.4664171238932605e-02 1.5022193249102983e-01 3.8672717691187262e-02  -4.3218949259691379e-02 1.3416180873670697e-01 3.6774401191557789e-02  -4.0471465367056189e-02 1.3644722858295236e-01 4.3253075761894903e-02  -4.3844210834653792e-02 1.4776157435494974e-01 4.3657295011017408e-02  -4.2330692018820754e-02 1.3127612665408883e-01 4.2906514241556025e-02  -3.9789697727048670e-02 1.3299109859702044e-01 4.9408630243755643e-02  -4.2921342673764684e-02 1.4457559107531434e-01 4.8717481437587085e-02  -4.1354454952145674e-02 1.2778231438326662e-01 4.9255772648642261e-02  -3.8970299421865168e-02 1.2871681312906028e-01 5.6043142970423905e-02  -4.1839007096787034e-02 1.4052274698709893e-01 5.4090875138165323e-02  -4.0241586071475315e-02 1.2357192114013478e-01 5.6153264324930278e-02  -4.2627311056452663e-02 1.3026753820092840e-01 1.2809138016398379e-02  -4.1865445619750100e-02 1.2795722085578315e-01 2.0924023214877435e-02  -4.1130625038062071e-02 1.2551335842676023e-01 2.8232319486190118e-02  -4.0413338423762109e-02 1.2276257634424774e-01 3.5131394692044932e-02  -3.9668778646310597e-02 1.1961218167970641e-01 4.1972062484846966e-02  -3.8850173768082870e-02 1.1594853547539991e-01 4.9091569247279809e-02  -3.7908214096294600e-02 1.1164902562840624e-01 5.6861200707334955e-02  -5.0955892084927012e-02 1.3601305555716678e-01 1.5704692337943277e-02  -5.3546992950485491e-02 1.4765712688023661e-01 2.0226687954273528e-02  -5.0468472085641723e-02 1.4887767812993860e-01 2.0125886317653836e-02  -4.8858687299723140e-02 1.4779443420708968e-01 2.6723557267080804e-02  -5.1652192312817924e-02 1.4661439553716324e-01 2.6539513986168505e-02  -4.9390779036594862e-02 1.3416483476394139e-01 2.2947222093434267e-02  -4.7570681945875243e-02 1.4631777216647460e-01 3.2514961690647985e-02  -5.0103346637737370e-02 1.4520861945526461e-01 3.2081497424839366e-02  -4.8014810959186111e-02 1.3212285657005646e-01 2.9390301347835688e-02  -4.6534210687224090e-02 1.4437971498848928e-01 3.7841482234483276e-02  -4.8842114930445296e-02 1.4335614648756603e-01 3.7164403978167775e-02  -4.6798149727251381e-02 1.2974941300928369e-01 3.5401956173066816e-02  -4.5464365353985965e-02 1.4186230898493724e-01 4.3053999997115275e-02  -4.7555988859151459e-02 1.4093560722999854e-01 4.2136925334880684e-02  -4.5558545997514230e-02 1.2691991125620278e-01 4.1341998550721272e-02  -4.4287666569482069e-02 1.3866302546428594e-01 4.8393413660417758e-02  -4.6162067849985354e-02 1.3786348297087681e-01 4.7237733532902053e-02  -4.4238201596582941e-02 1.2353835017124586e-01 4.7505990911087252e-02  -4.2936030709322871e-02 1.3465865363114529e-01 5.4145144455618723e-02  -4.4593601894682450e-02 1.3402145568825793e-01 5.2699573637466759e-02  -4.2788786701608586e-02 1.1949300015686111e-01 5.4216250770812012e-02  -3.9526848713251066e-02 1.2659263898156359e-01 1.1212486851778730e-02  -3.9011089366664822e-02 1.2408170146816817e-01 1.9574088897866045e-02  -3.8517390529947612e-02 1.2148065725220085e-01 2.7147686066964032e-02  -3.8006326831876602e-02 1.1862585224619795e-01 3.4315800376197636e-02  -3.7462516970324961e-02 1.1540865525087179e-01 4.1437337052373985e-02  -3.6855116673694219e-02 1.1171214818690232e-01 4.8863889419129038e-02  -3.6149844607332469e-02 1.0742354090659943e-01 5.6969035688528812e-02  -4.7679865877672596e-02 1.2070635948296966e-01 1.0576523359412986e-02  -4.6415860600029842e-02 1.1776130767669615e-01 1.8515518110744221e-02  -4.5217842155697061e-02 1.1482268217258995e-01 2.5683956488413550e-02  -4.4075554898910248e-02 1.1173692192283204e-01 3.2474020222134255e-02  -4.2915287390091393e-02 1.0835467595488445e-01 3.9258446258051187e-02  -4.1695458315701643e-02 1.0456009806487300e-01 4.6354593775402388e-02  -4.0390548671244912e-02 1.0026234580834306e-01 5.4087984082689111e-02  -4.7272804416137015e-02 1.3064611368026369e-01 1.3616757293288321e-02  -4.6062300312218848e-02 1.2831744760830463e-01 2.1388810716563757e-02  -4.4921369547591565e-02 1.2587151465397464e-01 2.8381667747766556e-02  -4.3884474157994749e-02 1.2315002541954927e-01 3.4950657650128072e-02  -4.2818875932731197e-02 1.2001627466316957e-01 4.1470448560534778e-02  -4.1681306538166700e-02 1.1637422977376601e-01 4.8257297385890727e-02  -4.0427864457968476e-02 1.1211967453260517e-01 5.5650346512861146e-02  -3.2333747181581857e-02 9.0810539268701460e-02 3.7742741412886652e-02  -3.2450513119876880e-02 7.5495300731828724e-02 3.4850090712959726e-02  -3.0415677565675248e-02 6.0934981419972133e-02 3.0628890317726969e-02  -3.2615444056568077e-02 9.4317092078216355e-02 2.9889803276979626e-02  -2.9770669816407698e-02 5.6816314099300123e-02 3.8945802408380213e-02  -3.2017762346825622e-02 8.7054250030459551e-02 4.6011506409005649e-02  -3.1853298722263369e-02 7.1352633104536309e-02 4.3263594297813748e-02  -2.9097820419767061e-02 5.2532601970028986e-02 4.8018524293131692e-02  -3.1670016615229786e-02 8.2990440227660611e-02 5.5006694349081918e-02  -3.1185376659461431e-02 6.6967015491492698e-02 5.2388985400841748e-02  -5.3987463444559812e-02 1.5579249200533207e-01 1.9039208785051234e-02  -5.3103600566054572e-02 1.6017922097173229e-01 2.1015750385510006e-02  -5.1623793563264117e-02 1.6028337329329262e-01 1.7346310769476649e-02  -5.2313173949684731e-02 1.5602974402706860e-01 1.5288704026135814e-02  -4.9982448971638019e-02 1.5996501457979007e-01 1.3075273229517839e-02  -5.0448286538114707e-02 1.5591436134427744e-01 1.0992673961128923e-02  -3.8329179894799434e-02 1.3795863459746577e-01 1.4392581142091757e-02  -3.8062063718269867e-02 1.3618594208763699e-01 2.2281565080775573e-02  -3.7828534205031669e-02 1.3410644898032700e-01 2.9341877361552769e-02  -3.7559847060809733e-02 1.3163559392092228e-01 3.5994136010682909e-02  -3.7246313997230697e-02 1.2868492075736693e-01 4.2553907099795729e-02  -3.6864835897633917e-02 1.2512696040963794e-01 4.9344078798475875e-02  -3.6388468138385338e-02 1.2081642542181338e-01 5.6720239720977658e-02  -5.4676235105123164e-02 1.4084252748711687e-01 1.7885121820134998e-02  -5.2771807004263434e-02 1.3942775449051126e-01 2.4430616239411663e-02  -5.1129842623859278e-02 1.3775157035556129e-01 3.0216459973404459e-02  -4.9730416728494736e-02 1.3570184012238248e-01 3.5551631047283802e-02  -4.8309809820495396e-02 1.3315412137423138e-01 4.0797610889038924e-02  -4.6800988829765168e-02 1.3001550051749322e-01 4.6201684605007017e-02  -4.5153128491945208e-02 1.2616186133339868e-01 5.2037474399590770e-02  -5.9027203986997574e-02 1.5448890488176747e-01 3.3030152867355327e-02  -6.0435035602508645e-02 1.6019152451850185e-01 3.3265190311540828e-02  -5.8317994612693665e-02 1.6239793574655106e-01 3.2052579112867206e-02  -5.7152573742060946e-02 1.5689094703799067e-01 3.0222781185489787e-02  -5.6795656014661931e-02 1.6386902177991691e-01 3.0549149370873017e-02  -5.5794191397523597e-02 1.5854199289946810e-01 2.7307742089345697e-02  -5.5381104509378665e-02 1.6470395473487731e-01 2.8858211100348648e-02  -5.4477946238746140e-02 1.5961854177360571e-01 2.4281732860948122e-02  -5.3912023933651805e-02 1.6498270898541734e-01 2.6898549055736947e-02  -5.2316538740197233e-02 1.6473201944585270e-01 2.4544241830582663e-02  -5.0513810588789544e-02 1.6397757941696783e-01 2.1623861821351523e-02  -3.6305512426935381e-02 1.1607095118389082e-01 7.9953870369102939e-03  -3.5964878140680022e-02 1.1312643043546881e-01 1.6764939621403581e-02  -3.5620750930203705e-02 1.1017345235164686e-01 2.4734539613238911e-02  -3.5266125286188825e-02 1.0709887807026890e-01 3.2318503610643728e-02  -3.4875726425324959e-02 1.0377051687075138e-01 3.9902123810729620e-02  -3.4433035195195777e-02 1.0006414257641832e-01 4.7844202015521912e-02  -3.3932304101765988e-02 9.5882014678650387e-02 5.6525114136275811e-02  -3.014652212