<?xml version="1.0"?>
<VTKFile type="UnstructuredGrid"  version="0.1"  >
<UnstructuredGrid>
<Piece  NumberOfPoints="926" NumberOfCells="3936">
<Points>
<DataArray  type="Float64"  NumberOfComponents="3"  format="ascii">1.03060011208329 2.114735987778004 0.960245141545079  1.015695087570966 2.246819545346341 0.887211305375292  1.137248837827948 2.229303083608117 0.9075905938553848  1.144934975333585 2.195873742890878 0.8428553360405681  1.020658016552287 2.213001999160698 0.8197521485204585  1.036403256001891 2.079162395000457 0.8959002215715118  1.152782700489807 2.162828467606074 0.7778024123666173  1.025756522583049 2.179615164038179 0.7519940802086447  1.042412123985897 2.043971031668605 0.8311615151039439  1.16065508480747 2.129902294587991 0.7125639040134916  1.030847657808261 2.146382091281804 0.684075051737667  1.048454133057065 2.008857037939448 0.7661934151025284  1.168477217771151 2.096911886319048 0.647271832664253  1.035830129149379 2.113130466154525 0.6161041171757391  1.054479334127521 1.973643008026936 0.7011502207860135  1.176200382103217 2.063715855002128 0.5820546739065544  1.040726927941035 2.07972786083983 0.5481887228616921  1.060456375561315 1.938198880935778 0.6361587839220849  1.184012733772377 2.030107594222272 0.5170587568901794  1.045808576216511 2.045836398042771 0.4805309542179788  1.066463148802034 1.902340803371398 0.5713577981106961  0.9005176110450267 2.203921600864311 0.9040772047794796  0.9035262693953179 2.168635592032861 0.8355235147391571  0.9066950908291056 2.133767734271238 0.766656213351757  0.909863009304154 2.09905252144973 0.6976037710077301  0.9129412144956167 2.064332660657514 0.6284741490892121  0.9159203854384246 2.029484960171035 0.5593707098350608  0.9191150178645318 1.994155523627886 0.490548269284533  1.262145989409082 2.481836366430333 0.8012924212246275  1.350269229197473 2.398555774304535 0.8532066920085496  1.24019339590453 2.350962506314265 0.8608697146349124  1.249284933056099 2.319296428836306 0.7955037785241781  1.360732143080413 2.3669016245181 0.788958181971698  1.270323870760993 2.452929190342265 0.7325469424918823  1.258489249417352 2.287982703276295 0.7299048436050777  1.371294978240275 2.335543495645138 0.7245147409652916  1.278555311596894 2.424352876919867 0.663645756769501  1.267715329823054 2.256795157967408 0.6641691945499993  1.381894605423537 2.304289803712875 0.6599550538867202  1.286770781937854 2.395913695772863 0.5946634619422946  1.27689687325127 2.225572868139079 0.5983981709120263  1.392477372175558 2.272997333375268 0.5953634718347713  1.29491197800598 2.367470056004575 0.5256775594191445  1.285990082887176 2.19418267940049 0.5327020317185492  1.403006887228304 2.241558211180452 0.5308348963156958  1.30301291998326 2.338888645203709 0.4567820510725926  1.295160630181139 2.16241733383854 0.4672121605285741  1.413559741980448 2.209802417293002 0.4664828670641215  1.311255377400222 2.309991144284963 0.3880966415784857  1.537235754372968 1.513682895250969 1.491809817349388  1.5436878936295 1.612652648023666 1.409998787177517  1.658817275468362 1.527962793865104 1.469736227497901  1.543362594876404 1.571403923000437 1.361692297761476  1.031821266009403 1.607119314768782 1.287461451795425  0.9127129103207532 1.676139559074788 1.203453291033653  0.9153295865423352 1.588064586759601 1.303805229715064  0.9101126112069072 1.727534614377724 1.252893593097417  1.028777099371395 1.659542150591836 1.331706767035231  0.9175122685965673 1.532798297334002 1.259837744422735  1.035181294137744 1.554458097091209 1.242927770871042  0.9155136002053691 1.624559720616801 1.153627386311073  0.919725211038026 1.477228945176278 1.215736169598475  1.038589799173103 1.501527697959846 1.198267522030253  0.9183651518725725 1.572695071411591 1.103599004090305  0.9218488422925273 1.421323960135746 1.171571662998972  1.041906207438229 1.448282880898148 1.153544610768347  0.9211864454667661 1.520496802559223 1.053476658326245  0.9238135164701821 1.365049748733252 1.127389183709  1.045052270301818 1.394679951846122 1.108794723659548  0.9239404683301922 1.467910955530799 1.003317438873814  0.9256073144983141 1.308385376868582 1.08322545015455  1.048012289838259 1.340689488419257 1.064014275029671  0.926639261684868 1.414870836834186 0.9531231359262168  1.141436626150316 2.463353867996515 0.7947143840808054  1.147628945241998 2.434070395071005 0.7241612008021515  1.153864156431079 2.405185861340917 0.653450468118852  1.160049422232566 2.376466828923787 0.582670990007038  1.166116190362283 2.347750012734175 0.5118993271825497  1.17216566888954 2.318894841676033 0.4412302152433285  1.178411785353252 2.289674672127709 0.3708102743382352  1.169624578504436 1.56371432971523 1.250350283931954  1.033361708466014 1.483290300428163 1.344756714921517  1.173415737948194 1.513231038756235 1.206024823355139  1.03611068015011 1.428600958491477 1.304302728430658  1.177125741962954 1.462480496440024 1.161634128043996  1.038740440778415 1.373619074131222 1.263795422432382  1.180636387505957 1.411434100549847 1.117205248062915  1.041109491682449 1.318332134552477 1.223252802521433  1.183887383355013 1.360047578208046 1.072759720683142  1.043119132064437 1.262668472720355 1.182691894452265  1.107919446778555 2.345231700583724 0.8471486988734575  1.11411981152856 2.313396400482949 0.7791817098625836  1.120409086679201 2.281979617854807 0.7109756152715827  1.126679674036326 2.250723951355057 0.6426423931003628  1.132833904889073 2.219456214870594 0.5742817927085765  1.138926241972773 2.188034744400068 0.5060006867417811  1.145207521205075 2.156187346045348 0.4379703427151617  1.684156307025003 2.139896606075257 0.581017435584947  1.692327127472479 2.030090884016653 0.6591030711609031  1.806076786053048 2.052435981306804 0.6725181910015384  1.67969354886002 2.063156140986992 0.7161511928713137  1.671998841464128 2.172336970615012 0.6403957730638237  0.7901843441868376 1.807727939643819 1.166601663410335  0.7885063132823793 1.71398120741801 1.260151620253778  0.7896303194974211 1.660039532290009 1.210138334538388  0.7912112789397492 1.757302188298132 1.11133829788434  0.7908893512299655 1.60586345065846 1.159760623576341  0.7923893694253378 1.706811402676113 1.055675624327433  0.7921987606930336 1.551398349592358 1.10919950180357  0.7936401097009672 1.656109337429039 0.999768425875543  0.793504495311284 1.496589738977557 1.058545222389981  0.7949280307858397 1.605108266473562 0.9437427882646481  0.7947685951686924 1.441384364728692 1.007862866462348  0.7962362756441302 1.553731604326935 0.8876851600584361  0.7959834549970464 1.385736075782399 0.9572009197885799  0.7975789560075592 1.501915105059077 0.8316640027618213  1.407910226593648 1.782486465886353 1.250861303862064  1.539856009828791 1.70288162746491 1.328285772056978  1.415052938528706 1.689069603448775 1.336826113237719  1.418340359983212 1.645650319008642 1.289803304024438  1.543357936608524 1.662829496356188 1.278643540504345  1.415239492779985 1.741571946812248 1.20102833193728  1.422043872157226 1.602081839311306 1.242583342543151  1.547264151387558 1.622700465238789 1.228893261353925  1.422997068189701 1.700692441664355 1.15093436933732  1.425920492235825 1.558330091829598 1.195211981199911  1.55133660431089 1.582448850285981 1.179048962461755  1.43091026494091 1.659665738735916 1.100679213907653  1.429779291117218 1.51438104793564 1.147740991141313  0.4057969753182139 2.504226173662519 0.7642662971990629  0.3981351659941509 2.39249710341981 0.8131219109212893  0.2765072819979336 2.397062930875575 0.8140900547890229  0.2755159856238301 2.357011214515496 0.7293756113255503  0.3958914917722223 2.354196046401598 0.7308456043424878  0.4043709637980051 2.469452774269271 0.6786042940644293  0.2746582468246514 2.315875764224877 0.644927486262093  0.3937742829492247 2.315592088013786 0.6487127790023046  0.4030637183165346 2.434496129023496 0.5931442388308386  0.2739231215640874 2.274452720252231 0.5604295651048539  0.3917762728111773 2.276913052710293 0.5666023218903886  0.4018003897900805 2.399534726683513 0.5077895935587047  0.2733049450674562 2.233122863274325 0.4757331652477492  0.3898859535191978 2.238318461167042 0.4843880046378625  0.4005089078185641 2.364713844009741 0.4224174816749042  0.2728136638270634 2.192118552428562 0.3907613543608416  0.3881379907048109 2.199892314795364 0.4020880340553368  0.3993232957901465 2.330097224168015 0.3369861515374815  0.2728874445444194 2.151380060152368 0.3057219985500378  0.3867832212127887 2.161566568318881 0.319802978947779  0.3985115170138381 2.295950824665224 0.2514664749216206  1.420659885511342 1.598545812122989 1.419108560546229  1.421008533992385 1.553967690813495 1.37314574483092  0.4072055987601611 2.092558376405856 0.9686094353262571  0.5355199305231264 2.1753153988381 0.9178660318318337  0.5269780881182463 2.076625732714295 0.9737069193144969  0.5249224477058846 2.034397217013336 0.901865395616273  0.533268859413655 2.135148069837326 0.8436923873090821  0.4051994077164008 2.049705382985011 0.8938038309851931  0.5230533692071125 1.992248887188184 0.8297578636003489  0.5312005426979535 2.095095107663433 0.7693285036285514  0.4033131148340731 2.006708279255165 0.818879369563793  0.5212868602947304 1.950040610189199 0.757474833481057  0.5292227586890047 2.055038576907417 0.6948488368089718  0.4015202927267613 1.963538443539634 0.7437973485113097  0.5196348523656155 1.907708604160147 0.6850632257995315  0.5273463156155457 2.014925014421527 0.6202774189544294  0.3998843862322738 1.920271856580262 0.6685092826470973  0.5180996705165962 1.865180967302026 0.6125605031316051  0.5255647236765923 1.974689253236958 0.5456390444970713  0.3984049008819209 1.876901997769885 0.593056457263041  0.5166740494174702 1.822348777478268 0.5400221521654861  0.5238856547399705 1.934213451832002 0.4709902417621201  0.3971198580580967 1.833391954817812 0.5174381447357508  0.894000350018836 2.317237423487414 0.8455004742818334  0.8971705018888438 2.284282069338842 0.773923263573862  0.9004558346156681 2.2
[...]
<PointData  Vectors="f_16"> 
<DataArray  type="Float64"  Name="f_16"  NumberOfComponents="3" format="ascii">6.7380252156200263e-02 -5.9642922696607009e-02 -1.1117270817759978e-01  6.7668411209537899e-02 -5.6247414721132163e-02 -1.0538211282525341e-01  6.6638634718867329e-02 -5.7427159578475280e-02 -1.0645589989361284e-01  6.6671621934310643e-02 -5.4307524729810840e-02 -1.0819992753180191e-01  6.7689958284222113e-02 -5.2904315534664542e-02 -1.0708799588752761e-01  6.7333706694273909e-02 -5.7190898883973780e-02 -1.1266638670572683e-01  6.6676301699107349e-02 -5.0883338562746863e-02 -1.0965337308261193e-01  6.7767917345427212e-02 -4.9319900400722760e-02 -1.0853889301759971e-01  6.7447503261923822e-02 -5.4481488780949404e-02 -1.1384637383271420e-01  6.6699800426757327e-02 -4.7101689066493771e-02 -1.1094778270915223e-01  6.7864019121090247e-02 -4.5374470854452162e-02 -1.0984824701080663e-01  6.7583026027453058e-02 -5.1357827267833202e-02 -1.1486378575321331e-01  6.6782998763395107e-02 -4.2981474944198343e-02 -1.1215516725159703e-01  6.7976790408740440e-02 -4.1092178355508505e-02 -1.1108297335386134e-01  6.7837923117521085e-02 -4.7764284037795181e-02 -1.1577914778173592e-01  6.6916229021343795e-02 -3.8566646253525780e-02 -1.1330233300112988e-01  6.8119183390705648e-02 -3.6520702924757738e-02 -1.1225608122363263e-01  6.8136296469220300e-02 -4.3796545354920627e-02 -1.1660674524344086e-01  6.7157255979733724e-02 -3.3880926707921054e-02 -1.1440168703415865e-01  6.8361977372235608e-02 -3.1698517809495362e-02 -1.1339063148668919e-01  6.8493618301431677e-02 -3.9516308283111402e-02 -1.1736266171650669e-01  6.8435656158451250e-02 -5.7039736160980785e-02 -1.0719930889255963e-01  6.8478695564128930e-02 -5.3879599337990129e-02 -1.0884037087935886e-01  6.8662778216961179e-02 -5.0519817961909894e-02 -1.1020776239221085e-01  6.8891602301711111e-02 -4.6755763858704051e-02 -1.1145096701915014e-01  6.9121698202736545e-02 -4.2619090643632090e-02 -1.1260243816235475e-01  6.9359969497824261e-02 -3.8182736964572681e-02 -1.1367878445419873e-01  6.9680407557840288e-02 -3.3516861710684159e-02 -1.1469747942972819e-01  6.4333527535392038e-02 -5.0153603934858584e-02 -9.2227700517724900e-02  6.3790664034330008e-02 -5.3835198532190508e-02 -9.7473012207460449e-02  6.5308801203264738e-02 -5.4649042519591649e-02 -1.0017691636742285e-01  6.5388254495181347e-02 -5.0748857366108117e-02 -1.0207626298176765e-01  6.3935749896557592e-02 -4.9689950696480203e-02 -9.9445270378306333e-02  6.4431636081550323e-02 -4.5323848881133166e-02 -9.3999858227448316e-02  6.5337104642296556e-02 -4.6645441765989698e-02 -1.0372176730233461e-01  6.3844516302324766e-02 -4.5365374059217249e-02 -1.0117602118068175e-01  6.4250091576058779e-02 -4.0598822035903689e-02 -9.5612874313971696e-02  6.5222328602751539e-02 -4.2353498470730222e-02 -1.0523091847880617e-01  6.3659702275173619e-02 -4.0997786847508981e-02 -1.0280103392463044e-01  6.4092607476104860e-02 -3.5862766666470751e-02 -9.7177794094797751e-02  6.5168274000775309e-02 -3.7851219239819579e-02 -1.0668090255123550e-01  6.3617120199549973e-02 -3.6493035427283861e-02 -1.0438340100338658e-01  6.4090438196631849e-02 -3.0980911054277704e-02 -9.8713099992787087e-02  6.5251923794834285e-02 -3.3126333269586555e-02 -1.0808966265428037e-01  6.3771112078441050e-02 -3.1798222786713820e-02 -1.0592717528810092e-01  6.4261174751359271e-02 -2.5899052988970044e-02 -1.0022423045234070e-01  6.5518561189787383e-02 -2.8170963373158799e-02 -1.0946809542611109e-01  6.4130617469861803e-02 -2.6877054816173630e-02 -1.0744329471307686e-01  6.4617043258732867e-02 -2.0599558105695422e-02 -1.0172478451276536e-01  5.1655679642359932e-02 -5.9754892774595086e-02 -1.0949776300153699e-01  5.3621731390924909e-02 -6.3185060992473729e-02 -1.1416443027140699e-01  5.0368885360681820e-02 -6.0384679954795843e-02 -1.0947862650495015e-01  5.4006054688099742e-02 -6.5211083144327012e-02 -1.1302577916690178e-01  6.1418617043489422e-02 -6.4134698361345027e-02 -1.1505532614507799e-01  6.3918990302151743e-02 -6.3822117645327123e-02 -1.1682535283666713e-01  6.2048299253937456e-02 -6.2765529747448409e-02 -1.1429314655954602e-01  6.4187595866425737e-02 -6.3218346779695969e-02 -1.1730619431497298e-01  6.1764800084193001e-02 -6.3007597412098659e-02 -1.1616459119065196e-01  6.1837767226349753e-02 -6.3527687167697119e-02 -1.1272153346780012e-01  6.1218770520127079e-02 -6.4866956604669679e-02 -1.1371866812002709e-01  6.3836300114058955e-02 -6.4060115230712186e-02 -1.1609342802803256e-01  6.1695620645449291e-02 -6.3971117874650194e-02 -1.1096985718464286e-01  6.1083874047693866e-02 -6.5263661952847052e-02 -1.1217552672922775e-01  6.3850140690564147e-02 -6.3964107970259740e-02 -1.1516296773793959e-01  6.1529220519215388e-02 -6.4132859546499332e-02 -1.0904962820743165e-01  6.0924454994084803e-02 -6.5349510892348750e-02 -1.1044582962514343e-01  6.3872135793794291e-02 -6.3565485547344994e-02 -1.1406851865909701e-01  6.1241714936226106e-02 -6.4040073041595189e-02 -1.0697870673176953e-01  6.0645459465587213e-02 -6.5147551735161957e-02 -1.0855170401653272e-01  6.3819274082654115e-02 -6.2890440299819106e-02 -1.1283724388015288e-01  6.0740874659187205e-02 -6.3733784050943126e-02 -1.0480402009860634e-01  6.0105078021533406e-02 -6.4715306512294068e-02 -1.0659415660490683e-01  6.3642645011186272e-02 -6.1906459927152803e-02 -1.1142418796398290e-01  6.5821696190171322e-02 -5.0131951621541271e-02 -9.3378167522786049e-02  6.5886243695005522e-02 -4.5458444950240186e-02 -9.5136304808268207e-02  6.5784631911446262e-02 -4.0722015008079551e-02 -9.6712505454881900e-02  6.5637265397321995e-02 -3.5890472210146809e-02 -9.8230772042937203e-02  6.5588132583988462e-02 -3.0888469207591043e-02 -9.9718137981012298e-02  6.5681409860763235e-02 -2.5695574916284599e-02 -1.0118105796259595e-01  6.5948520951743930e-02 -2.0294902769449421e-02 -1.0263461939634191e-01  5.9933927812397474e-02 -6.6026670608128432e-02 -1.1414679858806512e-01  5.9338706594097811e-02 -6.3086903710905917e-02 -1.0999731444602706e-01  5.9854663120340303e-02 -6.6530349402531636e-02 -1.1265249375071913e-01  5.9111044882636320e-02 -6.3912021301509886e-02 -1.0778920382964167e-01  5.9761979904490357e-02 -6.6710047619302548e-02 -1.1094101666592995e-01  5.8871550397126854e-02 -6.4462371061240795e-02 -1.0541004924496826e-01  5.9566780728867633e-02 -6.6565922579763459e-02 -1.0903178182797819e-01  5.8537989630208988e-02 -6.4736171766950776e-02 -1.0286392723103491e-01  5.9106403618763050e-02 -6.6122382225740531e-02 -1.0694146828895337e-01  5.7991237433833498e-02 -6.4638461580293766e-02 -1.0017348961977153e-01  6.6673554973568042e-02 -5.3917955879138002e-02 -1.0035784745729497e-01  6.6736364893755756e-02 -4.9993918984432319e-02 -1.0216963921499246e-01  6.6728308179599696e-02 -4.5860055304985818e-02 -1.0375045264479316e-01  6.6692778453410359e-02 -4.1472389116116955e-02 -1.0521073362316850e-01  6.6669217939876443e-02 -3.6846640578919232e-02 -1.0661098036090487e-01  6.6735838795749985e-02 -3.1984686593316228e-02 -1.0796639174906063e-01  6.6955061061622079e-02 -2.6896854804888185e-02 -1.0929753771184898e-01  6.1424660031773014e-02 -3.4446751263952143e-02 -1.1126927044292390e-01  6.1861768440780826e-02 -4.1750107141133239e-02 -1.1572425734091271e-01  6.0389501602921600e-02 -4.1737316156790751e-02 -1.1483197523297976e-01  6.1583230885721325e-02 -4.5995366342700135e-02 -1.1464530440653573e-01  6.1050223801597026e-02 -3.8971832771215548e-02 -1.0983916308518094e-01  6.6132915667792391e-02 -6.2820000904631343e-02 -1.1766406294518628e-01  6.4633948008568282e-02 -6.2209521305604656e-02 -1.1719415214300413e-01  6.4472261355324037e-02 -6.2832956263461748e-02 -1.1651471068359055e-01  6.6099823043170150e-02 -6.2704804593407645e-02 -1.1780746875148822e-01  6.4484169230058064e-02 -6.3104154041895441e-02 -1.1560440109479309e-01  6.6241132992197096e-02 -6.2270082916622942e-02 -1.1767141621078026e-01  6.4590070534416455e-02 -6.3061536581650174e-02 -1.1451254961126112e-01  6.6508220927707140e-02 -6.1515939032168669e-02 -1.1733139192699926e-01  6.4701802152968224e-02 -6.2744867389457379e-02 -1.1326056193235337e-01  6.6827320820386213e-02 -6.0460187714058748e-02 -1.1682212310578695e-01  6.4738722926567807e-02 -6.2183877363437001e-02 -1.1186615841054610e-01  6.7126467933996833e-02 -5.9125988755182712e-02 -1.1616236623475690e-01  6.4594325184081064e-02 -6.1448733573426860e-02 -1.1032367572929562e-01  6.7523603215031702e-02 -5.7387571728782269e-02 -1.1543397957481670e-01  5.9457877604838422e-02 -6.6590086960234690e-02 -1.1842474952307232e-01  5.5795767199926939e-02 -6.5690306076975097e-02 -1.1703330538260417e-01  5.7348129409148733e-02 -6.5250851772249971e-02 -1.1703709244515648e-01  5.7439785544210455e-02 -6.6694606289151748e-02 -1.1637717619729065e-01  5.6098997098269564e-02 -6.7154056938537238e-02 -1.1655985559155992e-01  5.9568299651753677e-02 -6.7322795690251819e-02 -1.1852586316285138e-01  5.7613688358795621e-02 -6.7717690731943475e-02 -1.1544978155599921e-01  5.6466340728889189e-02 -6.8193803447440277e-02 -1.1580373449342057e-01  5.9789367793698880e-02 -6.7664215906988137e-02 -1.1828443359089449e-01  5.7849703271550187e-02 -6.8383731007089499e-02 -1.1425860662592699e-01  5.6898730540392663e-02 -6.8879466416623625e-02 -1.1476855050161214e-01  6.0082333943901091e-02 -6.7631646402988327e-02 -1.1774540744121410e-01  5.8117616522529551e-02 -6.8717855405116435e-02 -1.1279039449741482e-01  7.1476801149379168e-02 -5.0824277775054168e-02 -8.9815190364680039e-02  7.0828729673552041e-02 -5.3930764017258909e-02 -9.7125951407539921e-02  7.1052367102733757e-02 -5.4312407173770276e-02 -9.7217617025417258e-02  7.2228827858437039e-02 -4.8419893072830393e-02 -9.9751677918816048e-02  7.1649036492335685e-02 -4.8439640998130154e-02 -9.9513700684828885e-02  7.2055505710456685e-02 -4.4576595109442077e-02 -9.2122322886687688e-02  7.3420664876088684e-02 -4.3288188479110500e-02 -1.0207440426876839e-01  7.2444263031367806e-02 -4.3294722544996569e-02 -1.0161462300999081e-01  7.2431908769674105e-02 -3.8984964536212162e-02 -9.4195138028388040e-02  7.4270314938488236e-02 -3.8477022339004817e-02 -1.0436044155633066e-01  7.3091314070534180e-02 -3.8390852594412467e-02 -1.0362319365248053e-01  7.2653560589267890e-02 -3.3643611284513687e-02 -9.6209847538097915e-02  7.4945519362462437e-02 -3.3603383282216542e-02 -1.0655229070890676e-01  7.3630793285623469e-02 -3.3427389690496453e-02 -1.0555714822892165e-01  7.2866842155792338e-02 -2.8136977891944411e-02 -9.8167666634233874e-02  7.5580869767580036e-02 -2.8416759063282639e-02 -1.0861686171344966e-01  7.4154420406907437e-02 -2.8230960534027804e-02 -1.0740314777939325e-01  7.3112681719447473e-02 -2.2341077372639538e-02 -1.0005849347555827e-01  7.6257793877889848e-02 -2.2722220819105850e-02 -1.1058873147597906e-01  7.4651448485192978e-02 -2.2735601637756737e-02 -1.0917679568869632e-01  7.3333473084697162e-02 -1.6206088776065435e-02 -1.0189654984478018e-01  5.5173967740759111e-02 -6.2858629594752566e-02 -1.1411708775676400e-01  5.5319743972907225e-02 -6.4794119094840411e-02 -1.1272099704806469e-01  6.8639081881481004e-02 -6.0199028877848074e-02 -1.1281471986898735e-01  6.9357017774156066e-02 -5.8229650713661700e-02 -1.0855712228074886e-01  6.8771660654559474e-02 -5.9946318139571027e-02 -1.1265731685253366e-01  6.9512165221547045e-02 -5.7265993938378001e-02 -1.1420074793002777e-01  7.0036837467959051e-02 -5.4757772855956240e-02 -1.1039267520162518e-01  6.9755601127703584e-02 -5.7200844352559184e-02 -1.1448147224905235e-01  7.0349410125026518e-02 -5.4403994863389822e-02 -1.1545425943404575e-01  7.0828012610166288e-02 -5.1151857289186017e-02 -1.1194435797687625e-01  7.0914768028834479e-02 -5.4071333482415808e-02 -1.1584048001062781e-01  7.1233399702808287e-02 -5.1253976617735356e-02 -1.1649802483254380e-01  7.1650807512504716e-02 -4.7312896612413037e-02 -1.1330009485701505e-01  7.2159723905591805e-02 -5.0770452548615189e-02 -1.1702133900107273e-01  7.2191441778541990e-02 -4.7866340737479057e-02 -1.1740008503815139e-01  7.2463711859609023e-02 -4.3312576820780976e-02 -1.1454462796050925e-01  7.3448023079005914e-02 -4.7286616856324383e-02 -1.1805178799650612e-01  7.3209616750923634e-02 -4.4307680045162855e-02 -1.1817551122839705e-01  7.3280489428723283e-02 -3.9176418068365200e-02 -1.1568870808059284e-01  7.4728570109008838e-02 -4.3674866754506179e-02 -1.1894331536110181e-01  7.4289355777422558e-02 -4.0563484489146408e-02 -1.1883029751655128e-01  7.4121064836182082e-02 -3.4853443661751506e-02 -1.1673307889117519e-01  7.6000731592249141e-02 -3.9881899254474822e-02 -1.1970090070527666e-01  6.8476311718646821e-02 -5.4049503455316193e-02 -1.0159692497635089e-01  6.8541376638045617e-02 -5.0132447314584452e-02 -1.0333965009493522e-01  6.8712181026084729e-02 -4.6019829492013123e-02 -1.0483709829449123e-01  6.8861618040937558e-02 -4.1574431569431941e-02 -1.0624003326186157e-01  6.8941180101267749e-02 -3.6858567755443480e-02 -1.0757578659723267e-01  6.9050660156666652e-02 -3.1910277633654421e-02 -1.0886372102914091e-01  6.9276163917237135e-02 -2.6768589429515467e-02 -1.1012613644020507e-01  6.8557439166221659e-02 -5.9445195930483571e-02 -1.1185352407099011e-01  7.0013536941474039e-02 -5.6974032011668126e-02 -1.0425983748768383e-01  6.9089178468299539e-02 -5.9144677091761869e-02 -1.0966113745523919e-01  7.0505816679435965e-02 -5.5159804660441077e-02 -1.1172463949281675e-01  7.1352845294445189e-02 -5.2065649504927036e-02 -1.0660284800342004e-01  7.0871120764422646e-02 -5.5423631390986834e-02 -1.1395857786423710e-01  7.2051745912943388e-02 -5.1301557151144192e-02 -1.1350688886821420e-01  7.2843569596214353e-02 -4.7518418654621183e-02 -1.0870384400306907e-01  7.3099844589054219e-02 -5.1520280909383091e-02 -1.1586781430486796e-01  7.3565096066282490e-02 -4.7407113166893868e-02 -1.1514951119213333e-01  7.4122804321716362e-02 -4.3118430991816031e-02 -1.1069985801519346e-01  7.5115766580436949e-02 -4.7649034127991534e-02 -1.1757231243015240e-01  7.4946837456593765e-02 -4.3479450133586096e-02 -1.1664814808081309e-01  7.5194282835115409e-02 -3.8734572067081259e-02 -1.1257871303147579e-01  7.6872830861648769e-02 -4.3853631772133181e-02 -1.1911511232405742e-01  7.6219580666775422e-02 -3.9447527475620102e-02 -1.1799891968825198e-01  7.6171345721279010e-02 -3.4166857278140797e-02 -1.1432716290608116e-01  7.8463527280894660e-02 -3.9974357833070552e-02 -1.2052324367958184e-01  7.7429352045906355e-02 -3.5181712998373568e-02 -1.1919712903782394e-01  7.7117173268713438e-02 -2.9224290462546650e-02 -1.1595279642055928e-01  7.9967738952437487e-02 -3.5748680769477688e-02 -1.2180657494511524e-01  6.7319960226574160e-02 -6.2041767961478991e-02 -1.1719034903603431e-01  6.6254483822306254e-02 -6.2189480887496068e-02 -1.1797118634368643e-01  6.6451393756045682e-02 -6.2146255107299035e-02 -1.1798173314794150e-01  6.7608486649334526e-02 -6.1228506527417036e-02 -1.1784741547608245e-01  6.6790372884802759e-02 -6.1782903176814348e-02 -1.1772854879903248e-01  6.8018403974905509e-02 -6.0151676507027955e-02 -1.1820389865375502e-01  6.7255884492471163e-02 -6.1113848264519231e-02 -1.1728598541951245e-01  6.8555977997259557e-02 -5.8763704834039046e-02 -1.1835166383103780e-01  6.7777194483970543e-02 -6.0173147162050494e-02 -1.1667459812075023e-01  6.9176394593780721e-02 -5.7064071712531000e-02 -1.1832073720297025e-01  6.8282853147178912e-02 -5.9006967320066564e-02 -1.1591125292513089e-01  6.9873965189700279e-02 -5.5098537710068257e-02 -1.1811750628341605e-01  6.8807106861114450e-02 -5.7539079207472629e-02 -1.1502717000934919e-01  7.0741789810093769e-02 -5.2771542844891918e-02 -1.1783673809816178e-01  6.3347487576247224e-02 -2.5322409663856005e-02 -9.0089484373391482e-02  6.2307918903347977e-02 -3.0151985965693053e-02 -9.6525649237289873e-02  6.2611932719668875e-02 -2.5137208376664933e-02 -9.8075404025789403e-02  6.3575938968150225e-02 -1.9952175681259326e-02 -9.1509155847267792e-02  6.3100529045440390e-02 -1.9892771709871516e-02 -9.9615748962614728e-02  6.3969064826423200e-02 -1.4359205817556600e-02 -9.2922893048831556e-02  7.2192137189180022e-02 -5.0921583750232362e-02 -8.9579017986344350e-02  7.2934472077403958e-02 -4.4383442547571664e-02 -9.2065892742906941e-02  7.3510114453488110e-02 -3.8920328480808390e-02 -9.4404652635269579e-02  7.3818282595432994e-02 -3.3707228745596167e-02 -9.6741046981788550e-02  7.4098721184957403e-02 -2.8251147201479931e-02 -9.8982932750901503e-02  7.4387161797192222e-02 -2.2407322195318317e-02 -1.0113066194946771e-01  7.4729601203314441e-02 -1.5989313384278527e-02 -1.0315051865148150e-01  6.2364906370833140e-02 -5.8542726069966994e-02 -1.0299772963805749e-01  6.0565207012126344e-02 -5.4772219696684513e-02 -9.4881550016469779e-02  6.0615293034235122e-02 -5.8770144790304402e-02 -1.0141223719225112e-01  6.0867818774124456e-02 -5.0483202099740040e-02 -9.6911034070383734e-02  6.2648875280568325e-02 -5.5198511244937194e-02 -1.0499885730744732e-01  6.1061577074907468e-02 -5.5358153338481660e-02 -1.0350947555667640e-01  6.0810558950904411e-02 -4.5975288831758075e-02 -9.8687879071942292e-02  6.2687065202748540e-02 -5.1539467638011129e-02 -1.0668078725477059e-01  6.1175387734216990e-02 -5.1631178496405139e-02 -1.0527993003738131e-01  6.0502501865854583e-02 -4.1503638616632026e-02 -1.0037146076443500e-01  6.2566390007260581e-02 -4.7572209895879070e-02 -1.0818403206896515e-01  6.1042436022300861e-02 -4.7576976304336577e-02 -1.0687713954483979e-01  6.0432618236281696e-02 -3.6999433949912175e-02 -1.0203367926892488e-01  6.2482438883281990e-02 -4.3397074950076719e-02 -1.0960751149399410e-01  6.0935856825056464e-02 -4.3341398734236015e-02 -1.0838282788072771e-01  6.0695814851185158e-02 -3.2407635954266698e-02 -1.0366943863083665e-01  6.2580940074664984e-02 -3.9049213255600804e-02 -1.1098240274778108e-01  6.1241566644835481e-02 -2.7657736486049724e-02 -1.0528069845953054e-01  6.2915131633071178e-02 -3.4506527093797791e-02 -1.1232448275132058e-01  6.3948005808035474e-02 -5.7792146813309353e-02 -1.0377265776821794e-01  6.2306821447376828e-02 -6.1798858269283191e-02 -1.0850943742836064e-01  6.3942344058395703e-02 -6.1053535052424009e-02 -1.0923818781041135e-01  6.4155857612014047e-02 -5.8550939601231547e-02 -1.1102819541507400e-01  6.2677737201111375e-02 -5.9316450029542549e-02 -1.1040228839427144e-01  6.4134743483077281e-02 -5.4443473442475881e-02 -1.0569853684640480e-01  6.4264306493360013e-02 -5.5706319023333430e-02 -1.1246386981475646e-01  6.2891003943673043e-02 -5.6517689162290781e-02 -1.1191029383626544e-01  6.4117920416330881e-02 -5.0786814425960759e-02 -1.0732831813919909e-01  6.4241643181221664e-02 -5.2436157082649225e-02 -1.1369715827666313e-01  6.2890323559595979e-02 -5.3250508472548558e-02 -1.1321006069857247e-01  6.4019552660430801e-02 -4.6844100349764294e-02 -1.0878027354235376e-01  6.4291023802382566e-02 -4.8757335137030969e-02 -1.1480085619696237e-01  6.2911180868486904e-02 -4.9566320910371248e-02 -1.1436190006991234e-01  6.3972274001160984e-02 -4.2657554777397064e-02 -1.1015073482971990e-01  6.4445046897740582e-02 -4.4754965647969630e-02 -1.1582939811387175e-01  6.3034561713513029e-02 -4.5556423051539563e-02 -1.1543620486087967e-01  6.4061757229488592e-02 -3.8252944054269412e-02 -1.1147375271631546e-01  6.4717170097170026e-02 -4.0480426071959071e-02 -1.1679712633097496e-01  6.3310868455222991e-02 -4.1303510831418547e-02 -1.1644882631807994e-01  6.4342771441342747e-02 -3.3616537115838140e-02 -1.1275586813344418e-01  6.8251358432087086e-02 -5.1043033862816466e-02 -9.5039455363204323e-02  6.7841688944178843e-02 -4.7840521309141106e-02 -8.7800787274062500e-02  6.7149233405180725e-02 -5.0583449806367628e-02 -9.4299484668388445e-02  6.7221119855371950e-02 -4.6002504460934263e-02 -9.6057091539469244e-02  6.8011196402869109e-02 -4.2575938373348041e-02 -8.9494259524679806e-02  6.8286778646267990e-02 -4.6420370879478964e-02 -9.6757243474504068e-02  6.7237685994982435e-02 -4.1264854258100940e-02 -9.7609722062354340e-02  6.7967140306093923e-02 -3.7344222249649353e-02 -9.1048702629282219e-02  6.8429266531668129e-