<?xml version="1.0"?>
<VTKFile type="UnstructuredGrid"  version="0.1"  >
<UnstructuredGrid>
<Piece  NumberOfPoints="964" NumberOfCells="4200">
<Points>
<DataArray  type="Float64"  NumberOfComponents="3"  format="ascii">9.266978080709009 4.166478734772276 1.461046206063056  9.181768326342784 4.153615163234046 1.421440012136226  9.229812892498522 4.183596148910432 1.545720100192326  9.225001213600809 4.254451996702117 1.5337098141396  9.17400880206511 4.22344805382868 1.39674741981919  9.263232953275427 4.237649187408688 1.443965941454983  9.166191513624447 4.293112367824737 1.372141042290828  9.259310704723765 4.308623509436723 1.426907863363632  9.220046346096956 4.325110014086564 1.521687216944611  9.158361504909907 4.362663866517195 1.347575475591854  9.255343013428973 4.379477167119222 1.409873776556618  9.215048862955515 4.395650355535002 1.509669553804112  9.25138991077514 4.45025554072018 1.392837444509859  9.150549658893723 4.432124608178785 1.323006380251303  9.210072711207522 4.46610708926888 1.497648021670934  9.247514519552405 4.52096626322079 1.375778919970283  9.142773484578768 4.501502849637824 1.298418775276526  9.205180501720591 4.536489008118264 1.485609917042559  9.243839590198354 4.591600647925072 1.358677650669061  9.135065068563895 4.570767056322967 1.273755527870728  9.200454247405888 4.606764068328688 1.473540843889851  10.07529515858642 4.588804190898318 1.572167383108527  10.18734279175933 4.597340709250579 1.440385915394989  10.19048052480231 4.62315116289204 1.577567612528617  10.20322677820336 4.532893703818655 1.458658292381387  10.17338315597876 4.686649592230349 1.564504272108333  10.05853699500224 4.652641933159619 1.559718670842898  10.17139950385488 4.661542135690604 1.422067613438369  10.15590331993107 4.749846415798849 1.551386892948414  10.04152269317798 4.716279503271734 1.547198439681895  10.15513669380878 4.725478467217985 1.403675198670255  9.269189491781457 3.508897321559913 0.8031180492487491  9.25768892179509 3.611752859882385 0.8295791996146857  9.145845883275847 3.515332408103231 0.7995290042308756  9.257879442574032 3.591159013944347 0.9030199296974351  9.257365371026342 3.632442522871406 0.7560355214695431  9.27148984559658 3.520080738763534 0.7282625905232292  9.144601100666611 3.529813882812118 0.7243516710600192  9.257015439028381 3.653142027959643 0.682378739466903  9.273768396372759 3.531236871130363 0.6533002951650895  9.143357317738964 3.544271367389051 0.6490791275963017  9.256698162700216 3.673786383518599 0.6086226631729904  9.078913286895306 4.16165421612941 1.489446513310811  9.07010785135207 4.232318779340733 1.470506054456137  9.061302524302999 4.302757400917685 1.451647329064017  9.052494317521505 4.37307347295324 1.43281795448255  9.043700879581515 4.443286948769023 1.413993711230907  9.034930542952448 4.513396199521337 1.395162265350292  9.026205595900121 4.583375777423039 1.376273204786125  9.146965131682423 3.500911066242058 0.8746005811692209  9.155479653519558 3.632567464468122 0.9154551655364104  9.150135335912022 3.65990472547121 0.8434569430916788  9.144707309636424 3.687359636104954 0.7713909736938518  9.139270072511929 3.714828561206808 0.6992384443686697  9.895028105200479 3.68001602730062 0.5671743945447697  10.00100262995815 3.80446390192767 0.5895508466232299  9.895764005211769 3.881413824402447 0.6231581243087723  9.904275376617283 3.66324784925729 0.639283908347778  9.904790567054796 3.851921006923815 0.6922225734026943  9.992179912609018 3.828866673384242 0.5194155651032909  9.885700840397487 3.696639415200236 0.4949641805165525  9.886672161557451 3.910763468467415 0.5539779766139492  9.983224894082875 3.853048622630048 0.4491648369210692  9.876258274070858 3.71308293416067 0.4226163500545815  9.877480323503413 3.9399274210146 0.4846400098768958  10.06994304091309 4.49380901153485 1.452346765615136  10.09199153817808 4.524783279293167 1.584568404729446  10.08532106522823 4.42845203666774 1.469020483591491  10.05464940825493 4.559033743074187 1.435673867722463  10.03930265474628 4.624101760110408 1.418972197005224  10.02374335150811 4.688996292053606 1.402195455666293  8.899423312899888 4.089963643106974 1.389037022420234  8.863713397737618 4.042471805275261 1.302634377542037  8.797870702052752 4.083990365694747 1.421130434442841  8.886550248088632 4.156990641374469 1.357552877277795  8.851699482370449 4.106844196563225 1.26371754011219  8.784602704513889 4.150843498321073 1.391042412136392  8.873817110678383 4.223884167561258 1.326220950510992  8.839770892509003 4.171169007916782 1.224927231872021  8.771493836647528 4.217572563826119 1.361092085009697  8.861132847408005 4.290668652625956 1.294956135853485  9.709830332307032 3.823794050567598 0.9666357003417865  9.648245283248556 3.738219022088 0.9239155636741019  9.608621889501141 3.864054239279523 0.998680770138634  9.601288879938801 3.904555484004125 0.9344596655269886  9.639941735129559 3.767121951864278 0.8541595108126332  9.701136737130337 3.862253395761769 0.9018319396412059  9.593936413697417 3.945249395865455 0.8702637222390762  9.631645699387761 3.79621101891022 0.7843447833088278  9.692480433752417 3.900938489328498 0.8370236278065858  9.586558469922828 3.98598088538804 0.8060250242517496  9.623327025215527 3.825320396222184 0.7144454098117563  9.683811352705836 3.939672059923775 0.7721549639800285  9.579183068914251 4.026680416895712 0.7417097559662353  9.614998544718492 3.854383288390539 0.6444440506760259  9.675130852505237 3.978368932574671 0.7072028900948495  9.571824812665158 4.067290767891915 0.6772755531127559  9.606663788232426 3.883354071905691 0.5743098426542146  9.666439327454837 4.016973240235358 0.642139506382797  9.56449635840271 4.107773272330491 0.6126683513218356  9.598282579136688 3.912192064629251 0.5040106042991095  9.657714702716882 4.055445406162093 0.5769343914440616  10.25220847933876 4.338582036304633 1.513752386824482  10.19402553348503 4.297021069651896 1.427674194377788  10.11690508424155 4.297437889250502 1.502514823399019  10.17899653124337 4.361380415732214 1.403047755633393  10.23549912427386 4.403448301860593 1.495291700279745  10.10091210667655 4.362989191429574 1.485728011799619  10.16433945044198 4.425681428488844 1.378544770598367  10.21922561861116 4.468245919427577 1.476943745927814  10.14990555859217 4.489862883451361 1.354097318262167  10.1355661454433 4.553893007108742 1.329660792693061  10.12117187824201 4.617746109642188 1.305189616536775  10.10653738403085 4.68143867225604 1.280647484391596  9.715158869837284 3.369244500365312 0.8560541100976971  9.618602934891676 3.296005606244551 0.8637696253591386  9.608155286295787 3.446315446956611 0.8684578516419396  9.602196540739312 3.451472386826545 0.7957622568378793  9.614087581709997 3.289225988885098 0.7927936158182679  9.708649432437005 3.368167801250249 0.7843268312263274  9.702100442682838 3.367081604002637 0.7124293445202649  9.596166014908864 3.456636930544211 0.7228981766673946  9.931977610504457 3.763632443341138 0.8989465602554592  9.93207089939734 3.613033129566723 0.8549644709563538  9.833844746357018 3.697253874355352 0.8918430573322838  9.825738773122595 3.720033886581909 0.8208290426709774  9.922745689267213 3.629628062241274 0.7832060709439241  9.922833102748845 3.792880943092879 0.8301013101604666  9.913794933025677 3.822372287331357 0.7611952339182206  9.913496770347898 3.646418800997101 0.7112983073691115  9.817684300349331 3.743015601060513 0.7496905649905223  9.809640542591158 3.766048556050221 0.6784484761692664  9.801567882788312 3.789017973194629 0.6071099086176962  9.793434155164482 3.811848137717666 0.5356612630159732  9.785272124027697 3.834523712084394 0.4640890185533606  10.08902408794522 4.254683865402099 1.379782561778639  10.07659658454535 4.320004264103579 1.353919749078919  10.06441965986929 4.38528131671295 1.328171896239549  10.05240426039578 4.450485525473864 1.302468726160448  10.04045069770149 4.515584306308117 1.276760568182472  10.02844793140533 4.580561496172215 1.251004807904124  10.01632649283803 4.645421060093886 1.225156370679999  9.538555251148633 3.783715555751105 0.9618255678226483  9.510815287288803 3.895726327641137 1.029454562679061  9.504306686969974 3.940644754516817 0.9676687629886903  9.532127044442841 3.818292451933417 0.8942039767592611  9.525647576581834 3.853069766844835 0.8265556567622815  9.497746637752497 3.985731987535129 0.9059455079287062  9.519132087081164 3.887877311962308 0.7588468551999074  9.491166847574698 4.030848682172453 0.8442064428207182  9.512619532575632 3.922650601423812 0.6910521802925285  9.484592737314092 4.075925379686264 0.7823980704357012  9.506134174363089 3.957334689941288 0.6231387383706997  9.478047760834281 4.120920302916597 0.7204733530201353  9.499696902194195 3.991894993408811 0.5550499522560182  9.471564862000713 4.165816831685881 0.6583762441264802  8.937891653525924 3.873147037185807 0.99035534581558  9.034554934055157 3.915502220735912 1.004895588240891  8.980800312447553 3.988286332906864 1.078490857238169  9.043590744131656 3.866958877111269 1.064997055030277  8.970724464316069 4.04326518491498 1.024682073814245  8.928623904595911 3.919323813320463 0.9284327611646725  9.025509939130059 3.964131042062676 0.9448913276598406  8.960658398187778 4.098223245013783 0.9709104302362989  8.919361636107967 3.965509834271912 0.8665197241212231  9.016466288604068 4.012762854803007 0.8849006886806656  9.532402721561937 3.538606498418149 0.8833431558110798  9.451363461721193 3.455144254160854 0.8753570769054617  9.447422577540584 3.606439982722882 0.9032328225090764  9.444196610461914 3.62432058763661 0.8301143587798048  9.448990853873999 3.461340503099183 0.8017195160870533  9.528449276261686 3.552111880505969 0.8102980482707963  9.440881543165981 3.642309242908236 0.7568506132109277  9.446508280396964 3.467551782788941 0.7279457341189463  9.524425343078692 3.565696957619563 0.7370846954029078  9.437527297012492 3.660302491890179 0.6834713171827922  9.443996109355979 3.473719891527717 0.654055306
[...]
<PointData  Vectors="f_16"> 
<DataArray  type="Float64"  Name="f_16"  NumberOfComponents="3" format="ascii">-3.8333965772966050e-02 4.6502241160044568e-02 1.9924055610034998e-02  -3.6847072771194485e-02 4.0887804549258049e-02 1.8902599660572301e-02  -3.8765286047433734e-02 5.8312963946691443e-02 2.0575702430884368e-02  -3.8354048924384349e-02 5.4731454706900586e-02 1.2272685850581395e-02  -3.6338772836552069e-02 3.5848441547986186e-02 1.2321378244549893e-02  -3.7905736886460678e-02 4.2126260544155483e-02 1.2497484183869386e-02  -3.5959369005752057e-02 3.1924586418603407e-02 5.8857116846989140e-03  -3.7516229792604980e-02 3.8803475304711642e-02 5.5227823462403467e-03  -3.7953709331387454e-02 5.1824815710911611e-02 4.4903869509855445e-03  -3.5663071225439012e-02 2.8685781202014850e-02 -6.6246320852818980e-04  -3.7176092736533363e-02 3.6129014718712632e-02 -1.4790103208777382e-03  -3.7589838109057409e-02 4.9442554870049671e-02 -3.1695129841428429e-03  -3.6848681666735224e-02 3.3878949492160228e-02 -8.7163255526608654e-03  -3.5378692550560142e-02 2.5904141984680686e-02 -7.4768973794053896e-03  -3.7238924388861089e-02 4.7411800515665237e-02 -1.0992040696274880e-02  -3.6493873422847066e-02 3.1924677531504186e-02 -1.6312788720570705e-02  -3.4983974264217101e-02 2.3382966248961638e-02 -1.4723821343506891e-02  -3.6902643788659026e-02 4.5647811443209993e-02 -1.9141225562815320e-02  -3.5993361271839525e-02 3.0117826611354717e-02 -2.4407924453912107e-02  -3.4525506471009867e-02 2.0955111171047470e-02 -2.2511200295291255e-02  -3.6489376511700158e-02 4.4084720744550512e-02 -2.7745479569925981e-02  -4.5672468315365582e-02 5.0811014300874632e-02 -1.1471409438215381e-02  -4.5775494140346394e-02 3.4422405310273407e-02 -1.1021145214952897e-02  -4.6555254820146559e-02 5.0056697059405381e-02 -1.2570975262819195e-02  -4.6682228096852824e-02 3.6617952931370386e-02 -5.2067753506646903e-03  -4.5541330137237115e-02 4.8297212880850961e-02 -1.9059666195755057e-02  -4.4701944241495442e-02 4.9050098215218316e-02 -1.8224113083092526e-02  -4.4975277751809213e-02 3.2427065314308015e-02 -1.7104128431160329e-02  -4.4629249759895205e-02 4.6618693530698557e-02 -2.5877902149511727e-02  -4.3810585110028208e-02 4.7385222526091855e-02 -2.5360630664895183e-02  -4.4298937984263743e-02 3.0548747153113939e-02 -2.3562515998532027e-02  -3.8576433678564850e-02 -1.8389803877892016e-02 1.5123600682158015e-04  -3.7378919344881405e-02 -1.8303560506955634e-02 5.2375336040772604e-03  -3.7307881531045535e-02 -1.7740136277753445e-02 3.0416628927779185e-03  -3.6631151933225366e-02 -1.7958149839888683e-02 4.3568804475450076e-03  -3.8773785636870998e-02 -1.5841528520472273e-02 6.0969061403324714e-03  -3.9988249206116822e-02 -1.5597558020443065e-02 5.1686076841821074e-04  -3.8660855174905903e-02 -1.5107656308370597e-02 3.5328049557321606e-03  -4.0041645554875230e-02 -1.3583654294615988e-02 6.5967208653701257e-03  -4.1371100493667656e-02 -1.2935594241278985e-02 7.0679879227043645e-04  -4.0021521137575837e-02 -1.2558039549531112e-02 3.8147639944343609e-03  -4.1282928189083211e-02 -1.1357641278215558e-02 6.7911418087717350e-03  -3.6261907830158056e-02 5.0540954036488783e-02 1.9611047557138578e-02  -3.5794702855536348e-02 4.6048608087079321e-02 1.2096136687852376e-02  -3.5443978509874616e-02 4.2545945545281273e-02 4.8524011346738382e-03  -3.5167468119284055e-02 3.9633178571212631e-02 -2.4121910782276207e-03  -3.4940621349220873e-02 3.7118383670024666e-02 -9.8907666457689371e-03  -3.4656157877165070e-02 3.4831930389200169e-02 -1.7743993813077358e-02  -3.4243898313031255e-02 3.2639967604364092e-02 -2.6079964924022429e-02  -3.5921033280882524e-02 -1.9391056384269877e-02 2.2548517542059594e-03  -3.5409955866262596e-02 -1.6758383459446607e-02 8.3812987570364567e-03  -3.5786828157899200e-02 -1.7846202935356513e-02 9.5411020165068455e-03  -3.7011183659618384e-02 -1.5792001767005393e-02 1.0612954089755787e-02  -3.8164410211730830e-02 -1.3897242831483544e-02 1.1200871168476666e-02  -4.8729022375917121e-02 -1.1006272417545789e-02 -3.9311829121579699e-03  -4.9102093102413549e-02 -1.1882942733493888e-02 -1.5560223254853183e-04  -4.7167196253864348e-02 -1.2597046920131456e-02 4.5679491145761020e-03  -4.7626240592494422e-02 -1.3625832220982254e-02 -4.5103024506280877e-03  -4.6303898310285842e-02 -1.4368327774232505e-02 4.0194681604582413e-03  -5.0109987921455677e-02 -9.5202888992340865e-03 2.9042637815618149e-04  -4.9890187451787971e-02 -8.2147145145136692e-03 -3.5456085002922651e-03  -4.8097016392289825e-02 -1.0603756241680926e-02 4.7880310977409602e-03  -5.1206345163969207e-02 -6.7823170563359771e-03 5.7535482549141267e-04  -5.1144023205503278e-02 -5.0944733690129907e-03 -3.3008070266814069e-03  -4.9136554236633108e-02 -8.2120469144303359e-03 4.8874089450373264e-03  -4.5522632894912866e-02 3.7018931983040307e-02 -3.5932206117772884e-03  -4.6717648425679340e-02 5.2720150923401946e-02 -4.9611659730760651e-03  -4.6463839783175795e-02 3.9478201550427097e-02 2.3160002507192469e-03  -4.4661686658065303e-02 3.4887697315900489e-02 -9.6607793748519754e-03  -4.3894782017352009e-02 3.2982715994003008e-02 -1.6029057065568779e-02  -4.3282950134256301e-02 3.1262954626535187e-02 -2.2822093196995491e-02  -3.3074749793895887e-02 3.6991520606324914e-02 2.1321956157358726e-02  -3.1919273137793559e-02 2.5447743264821843e-02 2.1792775320090781e-02  -3.2186941570122723e-02 4.1352004197926735e-02 2.2385318164256499e-02  -3.2568491365441266e-02 3.1369600941552646e-02 1.5667897624956361e-02  -3.1470616580489566e-02 1.9622772203342066e-02 1.7688117707393772e-02  -3.1692260104175696e-02 3.5820906770656927e-02 1.6333860833400573e-02  -3.2264261928770195e-02 2.6788690800681487e-02 1.0027891254199837e-02  -3.1228520258985853e-02 1.4934497494905486e-02 1.3354836100368058e-02  -3.1399946273791890e-02 3.1200204318562116e-02 1.0356393808545425e-02  -3.2090716335938740e-02 2.2940296561149598e-02 4.1839776055190596e-03  -4.2046604402704163e-02 -1.2339474088321773e-02 6.9797774533046390e-03  -4.1496664499719282e-02 -1.5784290947901271e-02 4.1477610717112695e-03  -4.0456131311244439e-02 -9.6668537465398052e-03 9.9969968438038716e-03  -4.0566079664824763e-02 -1.3012763993630199e-02 1.1006666113447432e-02  -4.1612217216169652e-02 -1.7308800296804677e-02 5.4000389119580432e-03  -4.2170080209802646e-02 -1.5020598161142814e-02 8.2379067143555119e-03  -4.0643931728185402e-02 -1.4653478052583328e-02 1.1885000452204005e-02  -4.1794240488577501e-02 -1.6310596217330133e-02 6.6468736729302421e-03  -4.2142046632055744e-02 -1.5696457300787604e-02 9.4373985148044556e-03  -4.0979138764116241e-02 -1.4635570133339408e-02 1.2511431082008065e-02  -4.2739159360291629e-02 -1.4483919275351385e-02 7.5269504193177282e-03  -4.2508901380915218e-02 -1.4994211229154352e-02 1.0370321175626092e-02  -4.1588946540311977e-02 -1.4387733779597704e-02 1.2367456524720953e-02  -4.3681226156679104e-02 -1.2818471470592814e-02 7.9234632893819476e-03  -4.3192678321525908e-02 -1.4137629111640201e-02 1.0633434011266972e-02  -4.2230270822101193e-02 -1.3852874477507198e-02 1.1635736355769047e-02  -4.4665554522425696e-02 -1.0948290662346181e-02 7.9548278359401758e-03  -4.3921043408193035e-02 -1.3133001403321007e-02 1.0355050963837776e-02  -4.2981423731882969e-02 -1.2865502784638671e-02 1.0463690455056955e-02  -4.5781875959610460e-02 -8.6085615349941972e-03 7.7920698144677402e-03  -4.4797896297577786e-02 -1.1604061343917092e-02 9.6270897317570978e-03  -4.9963344258197206e-02 4.5563967981573292e-02 1.2079007382579905e-02  -4.8597002216528989e-02 3.6103006639182929e-02 1.2229985312763451e-02  -4.8619201903635931e-02 4.6011623708551608e-02 1.4490166877689545e-02  -4.7516376472858751e-02 3.1854537128563863e-02 7.1112621202898841e-03  -4.8773516038986164e-02 4.2027811333278625e-02 6.1425790378775410e-03  -4.7485311271976277e-02 4.2408351292119242e-02 8.2523120939327274e-03  -4.6566864885587075e-02 2.8389354058728552e-02 2.0485424750018356e-03  -4.7682914939738696e-02 3.9110768969785624e-02 4.6356013323498084e-04  -4.5714283249998322e-02 2.5455152294092523e-02 -3.0620805287242410e-03  -4.4963339411266325e-02 2.2906216341322266e-02 -8.3658643505305184e-03  -4.4326766433068161e-02 2.0634487086071997e-02 -1.3979248244684470e-02  -4.3812554179575393e-02 1.8542375413508717e-02 -2.0014753151734746e-02  -4.3837172463443097e-02 -2.3268694583622289e-02 -1.5654820023001757e-02  -4.2834262687440838e-02 -2.4316071976672425e-02 -1.7446930570941412e-02  -4.1987433900437514e-02 -2.1748924152685745e-02 -9.6598949753538329e-03  -4.2536089114760131e-02 -1.9814376014077147e-02 -9.2458767567470419e-03  -4.3626750590693077e-02 -2.1012990193111165e-02 -1.7557010902581736e-02  -4.4311510060574745e-02 -2.0462966848715448e-02 -1.5498413919991358e-02  -4.5605582350970689e-02 -1.7498675755607259e-02 -1.5387964928016666e-02  -4.3798555311640487e-02 -1.6810769054144123e-02 -8.8589862720630467e-03  -4.5343165351442477e-02 -1.6334412442312873e-02 4.0688976729329668e-04  -4.5806772897630063e-02 -1.9388894274711053e-02 -7.2254750955082154e-03  -4.4230569209295821e-02 -1.7509152044078376e-02 -1.0889795519436346e-03  -4.4297911388721259e-02 -1.8113121913853839e-02 4.0250652720097274e-05  -4.5832904705635925e-02 -1.8665297151100862e-02 -6.2465316272300444e-03  -4.5508248461793077e-02 -1.7372522468205281e-02 1.7644307342225486e-03  -4.5516162310762963e-02 -1.6170248906152634e-02 3.0302920097582359e-03  -4.6553426957510829e-02 -1.6241910212548241e-02 -5.3178926168814551e-03  -4.4606941392337195e-02 -1.6315618815631434e-02 1.1526022839999657e-03  -4.5589544462411410e-02 -1.4113412250333758e-02 2.0334711660877102e-03  -4.6604119502452995e-02 -1.1955444988362665e-02 2.5436515186536930e-03  -4.7679074968278896e-02 -9.6098259775719928e-03 2.7945625830229121e-03  -4.8844255246927967e-02 -6.9023919539598919e-03 2.8553679685277581e-03  -4.7103719995591806e-02 3.1533446587950278e-02 1.3488793465596324e-02  -4.6208510486918396e-02 2.7011923568935087e-02 8.5619644286604683e-03  -4.5378851200309690e-02 2.3415252217255191e-02 3.7216893945645636e-03  -4.4639783629964180e-02 2.0445549580774741e-02 -1.2243179175784294e-03  -4.3999652836574157e-02 1.7917782146399483e-02 -6.4167559282715834e-03  -4.3461154838906557e-02 1.5705577362343202e-02 -1.1964995099448861e-02  -4.2968770900007204e-02 1.3704491251919214e-02 -1.7993040497881762e-02  -3.9757822139748218e-02 -1.3087343658197243e-02 8.0174250711817947e-03  -3.9016939683082001e-02 -6.8605025242293016e-03 1.2373344675001396e-02  -3.9126623770253617e-02 -1.0701990469397321e-02 1.3163737625520960e-02  -3.9834674713201727e-02 -1.5721066039417152e-02 9.1732507852856672e-03  -4.0054530180610344e-02 -1.6095629340480096e-02 1.0317096746472612e-02  -3.9260380871728111e-02 -1.3147385574896859e-02 1.3674776639263315e-02  -4.0759528819446555e-02 -1.5014357459637013e-02 1.1190236314738457e-02  -3.9527998399283816e-02 -1.4048345274740841e-02 1.3821054592618901e-02  -4.1635714840816261e-02 -1.3898578780570018e-02 1.1443004638634138e-02  -3.9982593440050569e-02 -1.4299468716656164e-02 1.3235795338644614e-02  -4.2492213192703812e-02 -1.2634973784850770e-02 1.1186594431849953e-02  -4.0500297141286411e-02 -1.4282062891726410e-02 1.1988862609448781e-02  -4.3406481953993520e-02 -1.0868433179798260e-02 1.0532412445423361e-02  -4.1091333650254247e-02 -1.3875371170405260e-02 1.0265566883790992e-02  -3.1908548075343844e-02 -9.1358360195443709e-03 1.9509728175429113e-02  -3.2966571931479192e-02 -7.9051684381490159e-03 1.8648695402724028e-02  -3.2129231620110499e-02 -7.3292660213770630e-04 1.9209127106774207e-02  -3.3121318719351187e-02 -3.4556698934639558e-03 1.8292911486606632e-02  -3.1938002650300341e-02 -4.7931254761847016e-03 1.7980724013655729e-02  -3.1679999944672799e-02 -1.2255714731554720e-02 1.9717053410272443e-02  -3.2782108089211476e-02 -1.1161320614486839e-02 1.8553077418941331e-02  -3.1824475494504595e-02 -8.0398491906012847e-03 1.6161885656351148e-02  -3.1874432939791475e-02 -1.3803943087236195e-02 1.9505930067731964e-02  -3.2866412414094319e-02 -1.3031075541916700e-02 1.7982022831526921e-02  -4.0503463819111928e-02 -1.9923962826769205e-02 -3.5345054678129874e-03  -3.9732423926403561e-02 -2.1146664938248402e-02 -6.2070624803909876e-03  -3.9040238482613461e-02 -1.8182034905554912e-02 1.4598794479111015e-03  -3.9516308022289233e-02 -1.8696210990767331e-02 2.2837139966826250e-03  -4.0859987266684432e-02 -1.9295384279668006e-02 -5.7939650956716606e-03  -4.1057804510120574e-02 -1.9199292202401647e-02 -2.7945678626766970e-03  -4.0661235784803004e-02 -1.6297073388092411e-02 3.1375840009978998e-03  -4.2091484577579594e-02 -1.6402138536083310e-02 -5.4635129868649442e-03  -4.2219033200112346e-02 -1.6343179518364958e-02 -2.0430408528465493e-03  -4.1857580273547336e-02 -1.3878653944961340e-02 3.7315626476428633e-03  -4.3391598966863308e-02 -1.3554226385865556e-02 -5.2534861813651190e-03  -4.3448569484789236e-02 -1.3666502379244848e-02 -1.5323363865296334e-03  -4.3047791828964982e-02 -1.1533001280254888e-02 4.0327725030561154e-03  -4.4699733317162503e-02 -1.0658768236155747e-02 -5.2075164943899263e-03  -4.4671173340289527e-02 -1.0993655643402409e-02 -1.2285734190565932e-03  -4.4224847052780167e-02 -9.0249037662182667e-03 4.0898492774061948e-03  -4.6007948455052627e-02 -7.6176558178086889e-03 -5.3168849729060405e-03  -4.5909594165032916e-02 -8.1630189705014008e-03 -1.1254283448751874e-03  -4.5391520331863860e-02 -6.1602351342428157e-03 3.9404383622468776e-03  -4.7311005509528020e-02 -4.3325937290628856e-03 -5.5557186258190418e-03  -4.7170019974586655e-02 -5.0290902567169402e-03 -1.1753278193969185e-03  -3.8009700698086443e-02 -1.9223098848760119e-02 1.4098019802898985e-04  -3.7615359353052963e-02 -1.6849809635899129e-02 5.4071792138521181e-03  -3.8048845047702048e-02 -1.8046200028341893e-02 6.3443351261893667e-03  -3.9004726483663092e-02 -1.8757977551562048e-02 8.4864318562558202e-04  -3.9205254728294864e-02 -1.6113737688629174e-02 7.2630765770964976e-03  -4.0344595972308356e-02 -1.5990253679173661e-02 1.4771933262526750e-03  -4.0403909323017038e-02 -1.4044986607752039e-02 7.8730470336469890e-03  -4.1625186783719334e-02 -1.3470984014256523e-02 1.8862612033023753e-03  -4.1576787754545499e-02 -1.2043136123019259e-02 8.0907263423475890e-03  -4.2899152729753739e-02 -1.0929228787688821e-02 2.0668162983595055e-03  -4.2719753155512435e-02 -9.8585568788409853e-03 8.0134116154970732e-03  -4.4151316827728791e-02 -8.2251781255869849e-03 2.0512430708466730e-03  -4.3785037201271852e-02 -7.2911806303433647e-03 7.7327668937892209e-03  -4.5336268190956902e-02 -5.2098622891161182e-03 1.8944777543135006e-03  -4.1198525812451578e-02 -2.3066505252019757e-02 -1.2146828037118187e-02  -4.2024822307860983e-02 -2.0387275164066958e-02 -1.2060593272156887e-02  -3.8228681407535305e-02 -1.0866086285428673e-02 1.1106949782504039e-02  -3.7400888715139240e-02 -2.5230219716234981e-03 1.4747017838940049e-02  -3.7431681530639922e-02 -6.9372213297785555e-03 1.5076452954973523e-02  -3.8296585283287408e-02 -1.4119358689275550e-02 1.2155112009118329e-02  -3.7569030015914467e-02 -1.0249857526284661e-02 1.4954651656261175e-02  -3.8536429201095977e-02 -1.5419734601232834e-02 1.3102101851726592e-02  -3.7704517207727654e-02 -1.2235743661980760e-02 1.4375350229747036e-02  -3.9187910971793735e-02 -1.4990472909098995e-02 1.3704804298105278e-02  -3.7982169961087948e-02 -1.3259256339524824e-02 1.3139871420708370e-02  -3.9936770089684617e-02 -1.4394641682609125e-02 1.3562186250718101e-02  -3.8377882952780870e-02 -1.3935619635557695e-02 1.1221955706933275e-02  -4.0693150181824796e-02 -1.3629315099922278e-02 1.2846915480393429e-02  -3.8809718043118897e-02 -1.4245392199735352e-02 8.7129921814384538e-03  -4.1427384434160948e-02 -1.2407810391112706e-02 1.1755766230443516e-02  -4.8072555914013153e-02 1.7502244551673111e-03 7.6891379325232448e-03  -4.6673256018562592e-02 6.0484534989905586e-03 9.9015623348714839e-03  -4.7592022611175684e-02 1.1323823250038237e-02 1.0025325549081648e-02  -4.6964618671596854e-02 6.8507208189518233e-03 8.1043080016296315e-03  -4.6270241399094428e-02 1.6723923358945500e-03 8.9645241899279811e-03  -4.7710011329973184e-02 -2.2510195483838942e-03 7.5399508253882501e-03  -4.6442234790844847e-02 3.3167702702918533e-03 5.7975328286363845e-03  -4.5917768214083964e-02 -1.8351921385976143e-03 7.4710347785070163e-03  -4.7519892764522363e-02 -5.6020005818458191e-03 6.8285777677016529e-03  -4.6027244347363223e-02 4.5620209069033491e-04 3.1213578563074177e-03  -4.5687705653099757e-02 -4.6561895488924305e-03 5.5487077934247798e-03  -4.7450590315565915e-02 -8.2259477271211957e-03 5.6940057222749918e-03  -4.5714212931728157e-02 -1.8783341381378303e-03 4.5415873720012516e-05  -4.5524497051211546e-02 -6.8423036593824567e-03 3.2038308946134232e-03  -4.7329891529314452e-02 -1.0057033681889781e-02 4.1348421499301799e-03  -4.5525771645085755e-02 -3.8365316730704260e-03 -3.4837852418085338e-03  -4.5420335003763128e-02 -8.4995286100985647e-03 3.7899314913471184e-04  -4.7275975284433627e-02 -1.1322104606402258e-02 2.1061412675329942e-03  -4.5450821190790469e-02 -5.5010817336324930e-03 -7.5032451687060244e-03  -4.5455811917150854e-02 -9.8359251394963109e-03 -2.9649099209123121e-03  -4.7490911839690238e-02 -1.2208052574032718e-02 -5.1442444272776870e-04  -3.4985901362270637e-02 3.4139856462172581e-02 1.9680504403819705e-02  -3.4482803315363728e-02 2.8432737732736746e-02 1.4411028652525191e-02  -3.4143842565402392e-02 2.3782218735579043e-02 8.9985155583839696e-03  -3.3912447465557070e-02 1.9916153989980947e-02 3.3789955594238801e-03  -3.3698965949640322e-02 1.6573409735353525e-02 -2.5626849089936121e-03  -3.3355108328697501e-02 1.3528526056763244e-02 -8.9921977246143862e-03  -3.2985814844820507e-02 1.0640351573208853e-02 -1.5985576000563113e-02  -4.7292705859778711e-02 -1.9607273598247371e-03 7.5081221155794253e-03  -4.7215565943718771e-02 -5.7170672736758400e-03 7.8688634646868847e-03  -4.7270964170126342e-02 -8.7927297062886569e-03 7.7130255987413335e-03  -4.7165757397474514e-02 -1.0919989274075868e-02 7.1252958214402078e-03  -4.7083108209265159e-02 -1.2214034685877995e-02 6.0328741430775192e-03  -4.7132092472470598e-02 -1.3003894262445576e-02 4.4159500499621690e-03  -4.7398734087482172e-02 -1.3431328411827970e-02 2.2492197677487307e-03  -4.5041230964648037e-02 -1.3887336093703698e-02 -8.5975035284162216e-03  -4.6301703223847857e-02 -1.0920758218227024e-02 -8.4768964998901998e-03  -4.7595499501919401e-02 -7.8179631962187208e-03 -8.4956934196559353e-03  -4.8956246859157851e-02 -4.4951192416412397e-03 -8.6567154504756348e-03  -4.2505525262763341e-02 -8.9598030530363693e-03 6.7640754510723163e-03  -4.3682613840800869e-02 -6.2249761234180060e-03 6.6092781738039180e-03  -4.7072264993134875e-02 4.1711277169383700e-02 1.5256791616519071e-02  -4.6079983399010815e-02 3.7855133509814565e-02 9.1025240129853496e-03  -4.5161190044085753e-02 3.4770758162241226e-02 3.2214748526570125e-03  -4.4319656295104023e-02 3.2219133947238514e-02 -2.6708262920097322e-03  -4.3556678382001487e-02 3.0044702166982254e-02 -8.7667881052255481e-03  -4.2884769281745193e-02 2.8143372922015512e-02 -1.5208868600285030e-02  -4.2302545293898597e-02 2.6449100233157101e-02 -2.2115827462490339e-02  -3.6764744417212912e-02 -7.7775131334609617e-03 1.4023658034628935e-02  -3.6770123749866976e-02 -1.1699942016874080e-02 1.4828439067894172e-02  -3.6873867194411165e-02 -1.3983889765083414e-02 1.5389726987270962e-02  -3.7251946369116669e-02 -1.4506104886306265e-02 1.5516637684247832e-02  -3.7843854344456154e-02 -1.4527722272419141e-02 1.4831552190427059e-02  -3.8481503523658415e-02 -1.4374831646074939e-02 1.3537232853114773e-02  -3.9138946738029166e-02 -1.3837824033756127e-02 1.1827271026024320e-02  -4.5803591500396743e-02 1.6739829183984062e-03 9.8392328958443638e-03  -4.5496167571007079e-02 -2.4455672630475981e-03 9.6511087863655875e-03  -4.5359579215724893e-02 -5.7062269052776766e-03 8.8749442627637058e-03  -4.5225397910868687e-02 -8.1751964804180604e-03 7.5847297800250447e-03  -4.5067385667790720e-02 -9.8