<?xml version="1.0"?>
<VTKFile type="UnstructuredGrid"  version="0.1"  >
<UnstructuredGrid>
<Piece  NumberOfPoints="952" NumberOfCells="4002">
<Points>
<DataArray  type="Float64"  NumberOfComponents="3"  format="ascii">9.005737634189856 2.662190528908788 0.7723461938831596  9.084451090602613 2.726760354965029 0.7262646939947003  9.008043840628719 2.785865873367932 0.6805762647790377  9.004752948517082 2.697252218387885 0.8251382351072292  9.085356948715509 2.69359514032057 0.6704365090126344  9.006841085146839 2.627383971758307 0.719437003206412  9.009230397931196 2.753189833045593 0.6223860831935671  8.305618931698151 2.437596726836075 1.136657103369128  8.210760883467648 2.376532609860462 1.123834859305424  8.245503399695226 2.509216825462968 1.078048599523687  8.265887319538253 2.485063386867563 1.027707646523515  8.231995623221341 2.354360038078393 1.074157730992279  8.326123310864117 2.414487322975192 1.087466876181903  8.346943641936415 2.391334013418923 1.038511361230087  8.25357913382863 2.33217968003205 1.024691101751453  8.286561723710847 2.46088001826117 0.9775931213226514  8.367909066074732 2.368195192328478 0.9897336669876637  8.275321918472695 2.310023939304246 0.9753578403807358  8.307374470301577 2.436707757164487 0.9276189890802244  8.388868600134094 2.345105814910148 0.9410618466260517  8.29705729271126 2.287909844346782 0.926084461623786  8.328181595813639 2.412573907803214 0.8777236645934708  8.409640278283465 2.322094666690491 0.8924143335925451  8.31859437079555 2.265834881063811 0.8767928954715665  8.348827014309174 2.38849829605071 0.8278331544687185  8.429927369203199 2.299126908727474 0.8436902597669693  8.339665234843554 2.243714226719836 0.8273842286329044  8.369075514718832 2.364445447135188 0.7778836751048661  9.000711149869074 2.83767445648032 1.037110542082258  8.880870545798976 2.899668289604016 0.9942968073626226  9.00257713282733 2.949979667718978 0.9715234459800299  8.882790196043876 2.867547058150486 0.9371389813380175  9.001778035516782 2.802820622614381 0.9838453316914378  9.003738622348529 2.917445577691455 0.9131358420170691  8.884685532769161 2.835178638475659 0.8801795234448366  9.002809496475955 2.767707440580363 0.9308092620318847  9.00483688066152 2.884612512838711 0.8549033258405183  8.886544996414328 2.802697155851299 0.8233541392721412  9.003794465369024 2.73247061508124 0.8779307273165275  9.005898949728728 2.85165501749769 0.7967643709005591  8.888374559447191 2.770207176432746 0.766613542042348  9.006952612769849 2.818706249407749 0.7386751878168047  8.890223412425486 2.737837664392813 0.709888700418765  8.892195276637361 2.705696217547315 0.6530979335962824  8.134033103556552 2.472916088419065 1.048689527897003  8.155020676193143 2.449742987836728 0.997560486013961  8.176319630293458 2.426567572779487 0.9465924480265687  8.197761537437239 2.403410809631511 0.8957139500780704  8.219200967709458 2.380281987425977 0.8448654613600289  8.240480681730372 2.357166542598667 0.7939900454746847  8.261401364276262 2.333977218367616 0.7430391667422799  8.65480152991363 2.804984694117684 0.7278785756374202  8.778348656903416 2.782490965076112 0.7514691640132927  8.724837695850695 2.879131876027213 0.6960348356574191  8.7736249955712 2.813055140660328 0.8094206370731039  8.729944773902224 2.85389719483192 0.6335192115692294  8.661790601830644 2.776680226660018 0.6684083807187022  8.783086326701907 2.752041555911225 0.6935618388120952  8.735095210260354 2.828847956724404 0.5709983722715537  8.668801671868287 2.748590624954375 0.6089370791146601  8.787900876235529 2.721843916109468 0.6356296302257294  8.759381886919138 2.904293554208575 0.9840416912954976  8.692627748846236 2.820396590730952 1.031573622689377  8.626830271431487 2.918088393777086 0.9667385153313008  8.699309886039057 2.787637271863609 0.9775939141057579  8.764122423356286 2.874060402292887 0.9256547402479447  8.633784496826729 2.890017406701415 0.9067898502238135  8.706051100721997 2.754684308870678 0.9238596525458487  8.768877903333449 2.843605018804088 0.8674673675796505  8.640786729268735 2.861741225058967 0.8470271015490106  8.712805681935128 2.721652949850719 0.8703043221446942  8.647800186216646 2.833369918721152 0.7874034968424999  8.719538001338773 2.688631600639126 0.8168706338097688  8.726235116272266 2.655719855692598 0.7634933206888138  8.732945403725731 2.623098544191173 0.7100898376556429  8.924305214358634 3.016776003933419 0.9363094274901529  8.922634654025346 2.988559952666979 0.8735740735007989  8.9208782263086 2.960063421888137 0.8109379620771247  8.91907692087616 2.931439645157235 0.7483696980354466  8.917264007051301 2.902800412468647 0.6858464789269973  8.915504635032798 2.874242908712131 0.6233324545524962  8.913956108706506 2.845843220660969 0.560771183913346  7.791810683480469 2.455633156735022 0.9357794172773297  7.763415218837585 2.360539852025566 0.9689824047414825  7.649167272342809 2.401352040697841 0.9258245031846253  7.660466316685352 2.377906629964961 0.8678557877103177  7.778127483448012 2.336741846726024 0.9133150219925097  7.807067973626362 2.433202385520922 0.8789807367162445  7.671834633537833 2.354560575907408 0.8096823527687232  7.793030876773267 2.313016370776336 0.8574945169393816  7.822493180636093 2.41086324509821 0.8220647573990675  7.683246118444786 2.331205142721842 0.7513865001498393  7.808012057184181 2.289277595584179 0.8015773137155549  7.837987793051381 2.388508517258253 0.7650721589891575  7.694661868934222 2.307742440012249 0.6930060031365229  7.822984194293552 2.265451317344752 0.7455811873498956  7.853473807298528 2.366064903672807 0.7080202393201822  7.706084265318697 2.284103787651047 0.6345578542319497  7.837892216497607 2.241480281635605 0.6894983886875171  7.868909101270495 2.343480239800865 0.6509071630953946  7.717538561033838 2.260237422774019 0.5760531033462037  7.852760802273172 2.217271699696043 0.6333289178796019  7.884302008741065 2.320686796799289 0.5937216827035011  7.674492196639685 2.513231050694638 0.8883583318028311  7.686558433507233 2.491466649989625 0.8289972262913518  7.69868779233375 2.469828649808956 0.7694455780625494  7.710847259139709 2.448168192508672 0.7097831195140472  7.723011050247581 2.426403679444539 0.6500519189869269  7.73519238985786 2.404475904619869 0.5902816623442636  7.747396635260458 2.382324097726066 0.5304843280059914  7.778399453806268 2.551773318984294 0.8971864244453256  7.793007565507498 2.530879180056191 0.8384942082479158  7.807736646891238 2.510064633052083 0.7796605861925299  7.822518419065073 2.489225949171565 0.7207450671103566  7.837305935212329 2.468312272090426 0.6617814640995107  7.85206972186723 2.447272234261938 0.6027842639753866  7.866807248951844 2.426035738732293 0.5437620026606503  8.812677774280944 2.964310420050706 0.892442068870002  8.81498336674605 2.937337645536226 0.8304204451737935  8.817269756110697 2.910227764555902 0.7684808977577542  8.819537611196823 2.883063748920181 0.706604066508253  8.821833893186032 2.855944497500709 0.6447408420737085  8.824243708717022 2.828999406705544 0.5828625789457376  8.656877247734389 2.642353599509046 1.135778512343985  8.551643646470774 2.607757546043326 1.134708912795387  8.622366310451055 2.725292676421732 1.076156905911098  8.632324920862798 2.693490284586971 1.02452570283136  8.564664314789425 2.578651407838798 1.085362442204406  8.666196257331361 2.610794300516967 1.086712692723889  8.642388404522517 2.661548463704356 0.9731824355556683  8.577848492892812 2.549435016470689 1.036273601666172  8.675630437429103 2.579111451691129 1.037909547856906  8.652490720282376 2.629560775446691 0.922044913174605  8.591105048705362 2.520187888471965 0.9874087408556567  8.685109170399459 2.547391256269032 0.9893241945219544  8.662575614630336 2.597616376625835 0.8710510496532267  8.604356246146518 2.490989852481631 0.938701091492484  8.694570090554496 2.515729580321165 0.9409054203875019  8.67258578338391 2.565819673635358 0.8201434485649367  8.617492398917745 2.461921292376049 0.8900868968159565  8.703927679005647 2.484222597515416 0.8926011050955445  8.682505529523731 2.534348978561495 0.7692261183581064  8.630391340309311 2.433151103381359 0.8414800416217312  8.71316426995617 2.453091914314219 0.8443073610017592  8.207328849189709 2.59590427500849 1.022262965121642  8.227352141393345 2.571457295385828 0.9699949474416264  8.247642617758144 2.546969195752479 0.9178984536832218  8.268055223925131 2.522479817531377 0.8659187985671136  8.288467134397896 2.498014486878652 0.8140028432842722  8.30875665399866 2.473592154891935 0.7620929600535313  8.328738569362562 2.449178395522789 0.7101475300874209  8.659675026387971 2.55925861245671 1.188908486142513  8.670047858566569 2.53046165206439 1.140530548032213  8.68054967697238 2.501560273210545 1.092422376997082  8.691114312527773 2.4726330004506 1.044549532392621  8.701668686670438 2.443759624187404 0.9968604765367659  8.712110701605779 2.415035199783221 0.9493035457881033  8.722335940231689 2.386673344580793 0.9017849060257753  7.683384574215961 2.291253904235464 0.9789015139441088  7.695234634262999 2.266709381156814 0.9225885117670045  7.707194179010024 2.242220882627455 0.8660843404323731  7.719210275984819 2.217714887209673 0.8094632089069057  7.731231850315132 2.193129534391133 0.7527429217138567  7.743218413138465 2.168388109076912 0.6959162636191744  7.755222352310818 2.143414587994108 0.6389862209601419  8.860492094895781 2.719552628102047 1.112334015305714  8.904737621558333 2.809237068624609 1.0562609449727  8.975124661946669 2.748257485378734 1.098915711906124  8.976733675045963 2.71318463964076 1.048981821823106  8.907057177464681 2.774142056351579 1.004282839414329  8.86481301783332 2.68590297731351 1.062553579903079  8.978334156251794 2.677924334793896 0.9993334145692845  8.909366444512731 2.738834124939794 0.9525724550875044  8.869165171070319 2.652069789038003 1.01303198564419  8.979911781935625 2.642586567277587 0.9498870557233506  8.911653055739281 2.703434151640005 0.9010396488054122  8.8735
[...]
<PointData  Vectors="f_16"> 
<DataArray  type="Float64"  Name="f_16"  NumberOfComponents="3" format="ascii">-4.0166237790834607e-02 -2.3698468718798354e-02 -3.5959018243168640e-02  -4.1935591510363961e-02 -2.0640136735866101e-02 -3.4545778726336733e-02  -4.1598174122063007e-02 -1.7711141653617510e-02 -2.9700697486672940e-02  -3.8953587550234287e-02 -2.6355661239808863e-02 -3.4117927531306408e-02  -4.3327235127978404e-02 -1.7772938886923991e-02 -3.6530454847983507e-02  -4.1546065461985776e-02 -2.0901492868422751e-02 -3.7993710195916373e-02  -4.3008309760538668e-02 -1.4843727005196272e-02 -3.1683011351632116e-02  -1.9996420235320236e-02 -4.6408406833575992e-02 -2.6013135193073984e-02  -1.9306414823471289e-02 -4.5618516476557673e-02 -2.5256257687598083e-02  -2.0248878571306670e-02 -4.3333453835010659e-02 -2.2376016468794023e-02  -2.1663394767220585e-02 -4.1207335924246032e-02 -2.3760267855687797e-02  -2.0548420426548957e-02 -4.4254105996197966e-02 -2.6425134453916265e-02  -2.1273609657762652e-02 -4.4864665414789742e-02 -2.7359121730792964e-02  -2.2767012317516318e-02 -4.3071428791915639e-02 -2.8600295741134728e-02  -2.1958606198669905e-02 -4.2629108743038983e-02 -2.7485395061387349e-02  -2.3277529894929923e-02 -3.8926723217989283e-02 -2.5058488488079813e-02  -2.4415840951872683e-02 -4.1034329166947298e-02 -2.9756369550283809e-02  -2.3500441484305114e-02 -4.0757252989543004e-02 -2.8470311404827732e-02  -2.5013144288846909e-02 -3.6467600860090044e-02 -2.6286964033410614e-02  -2.6140272080549247e-02 -3.8762659932705286e-02 -3.0832598556381419e-02  -2.5116460038406830e-02 -3.8611666334605846e-02 -2.9394566462961257e-02  -2.6780672684826853e-02 -3.3944759228644358e-02 -2.7447922132161278e-02  -2.7897321427141790e-02 -3.6337475528479157e-02 -3.1843809387528239e-02  -2.6757090188413511e-02 -3.6333717967548348e-02 -3.0248651670112047e-02  -2.8456796949948800e-02 -3.1669639962582416e-02 -2.8594296947672675e-02  -2.9540644709428791e-02 -3.3998887346982337e-02 -3.2802151110872417e-02  -2.8336920028790166e-02 -3.4179600009678048e-02 -3.1063976046654576e-02  -2.9819241241155120e-02 -2.9556061738506844e-02 -2.9721085948174759e-02  -3.2202986047292999e-02 -4.0544581752862088e-02 -2.7167347515406642e-02  -3.1218796613906627e-02 -3.5868300486022769e-02 -2.1013253101881329e-02  -3.3533336379497625e-02 -3.3855957699034676e-02 -2.1421312381472383e-02  -3.3488231735024181e-02 -3.1364891590113908e-02 -2.2550284298046407e-02  -3.4163379248003077e-02 -3.6601157908492644e-02 -2.8961038571263791e-02  -3.5853083934981066e-02 -2.9312244584511957e-02 -2.2901220143229647e-02  -3.5454229762568991e-02 -2.7706542590985681e-02 -2.4058023630037912e-02  -3.6160100070011164e-02 -3.2759757940440476e-02 -3.0668628470069816e-02  -3.7647257264791290e-02 -2.5812436006683252e-02 -2.4418629968661520e-02  -3.7011110563257073e-02 -2.4832699959562960e-02 -2.5638796752459413e-02  -3.7754353052653004e-02 -2.9303301606618648e-02 -3.2356994005550026e-02  -3.8952464295573808e-02 -2.3033671831008542e-02 -2.6041480223938717e-02  -3.8265466199416544e-02 -2.2254369254030251e-02 -2.7349164254057954e-02  -4.0227019201580810e-02 -2.0444524414877773e-02 -2.7831561592791602e-02  -3.9568253667648899e-02 -1.9591729409637788e-02 -2.9139773072805904e-02  -4.0955250724313226e-02 -1.6761562167463342e-02 -3.1105111031692802e-02  -1.9584814085408412e-02 -4.1832215512094088e-02 -2.1025274187482696e-02  -2.0943780579580261e-02 -3.9772729517460761e-02 -2.2242693497765226e-02  -2.2488028537659726e-02 -3.7566671956041048e-02 -2.3380681789642432e-02  -2.4119972028311013e-02 -3.5189231025992432e-02 -2.4438906991632842e-02  -2.5795873712551702e-02 -3.2835090172070001e-02 -2.5470042612000782e-02  -2.7340050118920749e-02 -3.0726322205180685e-02 -2.6501020290853508e-02  -2.8589075723077440e-02 -2.8764819832287736e-02 -2.7545735306937814e-02  -3.5749604469922092e-02 -2.0252461824298015e-02 -1.9687569644051630e-02  -3.7058532087036869e-02 -2.1435212459874675e-02 -2.3900897561798393e-02  -3.7179137569945835e-02 -1.7949542666789581e-02 -1.7885725402922704e-02  -3.5717854893607473e-02 -2.3898283625773349e-02 -2.2269295329078859e-02  -3.8503681712361383e-02 -1.5114951755416363e-02 -1.9413117115630610e-02  -3.7000168001004065e-02 -1.7634120985689995e-02 -2.1355109014547149e-02  -3.8353508534065155e-02 -1.8767979745818650e-02 -2.5646647480333708e-02  -3.9888228638183344e-02 -1.2225858737106731e-02 -2.1112097950701507e-02  -3.8257859017726478e-02 -1.4851752366424040e-02 -2.3203676731072674e-02  -3.9693663819695864e-02 -1.5969606975258555e-02 -2.7570542056809953e-02  -2.9787128688219890e-02 -3.4518899067937689e-02 -1.7842364145989734e-02  -2.7660637035739871e-02 -3.8827434392340217e-02 -2.0290879926615425e-02  -2.8536576050646502e-02 -3.2772080464274891e-02 -1.3957445018406546e-02  -2.9507426782785749e-02 -3.5136791990788813e-02 -2.2053000611960357e-02  -3.2053569712630993e-02 -3.0102168856126883e-02 -1.9268692217186960e-02  -3.0796583863342920e-02 -2.8408541969108650e-02 -1.5286165262652926e-02  -3.1517821701847977e-02 -3.1499184389554021e-02 -2.3725634852878354e-02  -3.4065962593703702e-02 -2.6561682573826934e-02 -2.0728965664482950e-02  -3.2757625532653649e-02 -2.5063060022639538e-02 -1.6651398589699391e-02  -3.3441140618965755e-02 -2.8381654134299623e-02 -2.5381055348285855e-02  -3.4345668226606389e-02 -2.2582540473508717e-02 -1.8121077437721123e-02  -3.5046414909062740e-02 -2.5843353627585035e-02 -2.7062978252052491e-02  -3.6262434916606745e-02 -2.3444554064231460e-02 -2.8808981758894667e-02  -3.7486598797744859e-02 -2.0817786261492305e-02 -3.0775801981073932e-02  -3.3411311835103853e-02 -2.9623063434700399e-02 -1.6266648795915759e-02  -3.5591432348889118e-02 -2.5351734120112702e-02 -1.7319026478204397e-02  -3.7208807469034245e-02 -2.2432429125391926e-02 -1.8534520122607808e-02  -3.8528992210107457e-02 -1.9992230439107507e-02 -1.9977206704850686e-02  -3.9835939453067050e-02 -1.7184083255405169e-02 -2.1503895188707933e-02  -4.1210534629466083e-02 -1.4284074562495197e-02 -2.3095837728935382e-02  -4.2762636294486817e-02 -1.1327216413030210e-02 -2.4795330352154508e-02  -1.8065045041117316e-02 -3.6124591600636982e-02 -1.5510566833509782e-02  -1.7574826357442210e-02 -3.8202542239247322e-02 -1.7458324754993974e-02  -1.6982889265858298e-02 -3.5977414071559008e-02 -1.5081531855129169e-02  -1.7785104322905056e-02 -3.3691511707256469e-02 -1.5700326738464835e-02  -1.8478703717538427e-02 -3.6232505985204090e-02 -1.8119809376081798e-02  -1.9149959742196306e-02 -3.3731476139826390e-02 -1.6253552081249650e-02  -1.8875852456182479e-02 -3.1544483180169371e-02 -1.6288474567457124e-02  -1.9597336889463159e-02 -3.4144310578996785e-02 -1.8738743005787997e-02  -2.0507343707518191e-02 -3.1440898576632091e-02 -1.6970735194138144e-02  -1.9920264136247513e-02 -2.9659725150883012e-02 -1.6875209736949875e-02  -2.0815164584279008e-02 -3.2154685355083049e-02 -1.9338307226491897e-02  -2.1810231460142031e-02 -2.9394153913122160e-02 -1.7695950390464437e-02  -2.0782952879547869e-02 -2.7911112079134416e-02 -1.7468639990402136e-02  -2.1921458743051653e-02 -3.0334457077737798e-02 -1.9931992069768971e-02  -2.2885939484969028e-02 -2.7540915043113175e-02 -1.8430487715206272e-02  -2.1494967991658627e-02 -2.6141131353144841e-02 -1.8051709995377876e-02  -2.2830599968460773e-02 -2.8617122773828156e-02 -2.0517344976318765e-02  -2.3740414632935577e-02 -2.5736349265387884e-02 -1.9157693689066772e-02  -2.2119036365501315e-02 -2.4207474010552628e-02 -1.8619702147985983e-02  -2.3537384414591255e-02 -2.6840534038489437e-02 -2.1083433702285860e-02  -2.4417830538215068e-02 -2.3794694846925521e-02 -1.9874585803030444e-02  -1.7499592683026203e-02 -3.3352262975367648e-02 -1.2317745103577107e-02  -1.8627986207922068e-02 -3.0758903852888545e-02 -1.3009804720186960e-02  -1.9858981515753337e-02 -2.8545779082245051e-02 -1.3691752957711112e-02  -2.0877318983085112e-02 -2.6608593080231429e-02 -1.4405620173388756e-02  -2.1685825780976942e-02 -2.4740897079485989e-02 -1.5133826325592650e-02  -2.2413813682564298e-02 -2.2777704841506041e-02 -1.5851510565692253e-02  -2.3067904588837892e-02 -2.0639828032190978e-02 -1.6548420544010404e-02  -1.8409414305921513e-02 -3.3368480629848853e-02 -1.2446476529986327e-02  -1.9711911912735493e-02 -3.0692813761443453e-02 -1.3200997236226942e-02  -2.1155348155979092e-02 -2.8361855639786760e-02 -1.3964955449739897e-02  -2.2352296542421497e-02 -2.6329306150616447e-02 -1.4756234105531311e-02  -2.3278941256024629e-02 -2.4427936990203805e-02 -1.5560896432498604e-02  -2.4063619762305220e-02 -2.2472712339471637e-02 -1.6358669491783173e-02  -2.4730891259327856e-02 -2.0328653607120266e-02 -1.7140125435977750e-02  -3.3607154409029776e-02 -2.6624304615492214e-02 -1.5945749687918748e-02  -3.5423319671585005e-02 -2.3430568318009146e-02 -1.7165677718329792e-02  -3.6900203474138554e-02 -2.0946583893528631e-02 -1.8521568126266284e-02  -3.8239938082459055e-02 -1.8307902459856914e-02 -1.9970692599380759e-02  -3.9586655236488334e-02 -1.5479291192966187e-02 -2.1545662341490926e-02  -4.1054994784969684e-02 -1.2612600676963986e-02 -2.3311354324288120e-02  -2.4425865846551695e-02 -4.7156992236841139e-02 -2.7872378416852150e-02  -2.2936098548173547e-02 -4.6835475044046573e-02 -2.6533283623513194e-02  -2.5380083420281543e-02 -4.2699978446519932e-02 -2.3097097230865695e-02  -2.7095907673155489e-02 -3.9543818575550782e-02 -2.4931377699014823e-02  -2.4430370972292566e-02 -4.4480781251672340e-02 -2.8289291448102220e-02  -2.5969776175121202e-02 -4.4674824282090866e-02 -2.9725236545855231e-02  -2.9027927226537562e-02 -3.6321110341468434e-02 -2.6672930574493822e-02  -2.6178975604280594e-02 -4.1981765926341771e-02 -2.9902957479248222e-02  -2.7755106298864594e-02 -4.2073670067114363e-02 -3.1424205388344825e-02  -3.0979093751072492e-02 -3.3107866460824115e-02 -2.8334103705115587e-02  -2.8080792315572138e-02 -3.9291761697583645e-02 -3.1419848399797501e-02  -2.9699402521035232e-02 -3.9302940275667754e-02 -3.3024234016442292e-02  -3.2851680013288274e-02 -3.0317033346262519e-02 -2.9936035804290568e-02  -2.9981600899348711e-02 -3.6458831420886219e-02 -3.2852402271840740e-02  -3.1594993917287137e-02 -3.6415561363046307e-02 -3.4559149788084817e-02  -3.4332019680927202e-02 -2.7777280703095975e-02 -3.1551520423612082e-02  -3.1788130831483047e-02 -3.3792022904390276e-02 -3.4235823617817338e-02  -3.3251079198477841e-02 -3.3615977873372296e-02 -3.5991451325190507e-02  -3.5409775324777605e-02 -2.5087077692721602e-02 -3.3310193908581628e-02  -3.3125344118596203e-02 -3.1066319646160932e-02 -3.5562280088776169e-02  -3.4540847364991425e-02 -3.0743774431177772e-02 -3.7456206796952246e-02  -2.1012419629119091e-02 -3.9816523980134168e-02 -1.8485641228432517e-02  -2.2573269334659953e-02 -3.7095538521400719e-02 -1.9860863432575648e-02  -2.4305943002495303e-02 -3.4339365197648727e-02 -2.1176480156063143e-02  -2.6150918738935200e-02 -3.1636607089449875e-02 -2.2431922991958061e-02  -2.7862314734495335e-02 -2.9284026439487819e-02 -2.3681174536610543e-02  -2.9319948148147916e-02 -2.7261262277049145e-02 -2.4956764407920124e-02  -3.0381541828119262e-02 -2.5315462394674259e-02 -2.6254044126292203e-02  -2.3466403793865470e-02 -5.0345950219932829e-02 -3.1518327137066912e-02  -2.4864182005036890e-02 -4.8503972690953058e-02 -3.3234395480909645e-02  -2.6492382461251737e-02 -4.6468903291272450e-02 -3.4773071984262362e-02  -2.8327410066587965e-02 -4.4180200756595164e-02 -3.6193852126305298e-02  -3.0267741721735266e-02 -4.1657841810939622e-02 -3.7517035974632310e-02  -3.2115454489999321e-02 -3.8901908757071758e-02 -3.8696545078856365e-02  -3.3537226382696239e-02 -3.5879382083517153e-02 -3.9761052979614186e-02  -1.6989038962119726e-02 -3.8825235946007675e-02 -1.7815556528868539e-02  -1.7723319074740423e-02 -3.7082095630328223e-02 -1.8320105770093992e-02  -1.8602760859116808e-02 -3.5160771997846355e-02 -1.8799014562954949e-02  -1.9632621552045395e-02 -3.3280121061695152e-02 -1.9249045597992079e-02  -2.0597966200066351e-02 -3.1546155237428042e-02 -1.9681324325398250e-02  -2.1401432671611650e-02 -2.9903791749983519e-02 -2.0100175848235726e-02  -2.2052804551245409e-02 -2.8193613982047602e-02 -2.0496711960823855e-02  -2.8206451786148373e-02 -4.6274356839360979e-02 -2.9664181452261320e-02  -3.0259906830681135e-02 -4.1629138446565420e-02 -2.6204128214403419e-02  -3.0500289950610212e-02 -4.5802107295637801e-02 -3.1141612257618932e-02  -3.2119367125394052e-02 -4.2668960988849647e-02 -3.3130509723814483e-02  -3.2017492721718409e-02 -3.8066084934232136e-02 -2.8086995254402770e-02  -2.9853301124483051e-02 -4.3309167331610950e-02 -3.1602495010537211e-02  -3.3991996555931749e-02 -3.9456216431328579e-02 -3.4936855054753482e-02  -3.3997784447130551e-02 -3.4508369401544080e-02 -2.9880892478108972e-02  -3.1738986796485284e-02 -4.0307704153272297e-02 -3.3381190113969422e-02  -3.5866247998702049e-02 -3.6090154325238079e-02 -3.6627425954646887e-02  -3.5847138623717391e-02 -3.1116968991707461e-02 -3.1596294507939326e-02  -3.3702823775159409e-02 -3.7111942839614914e-02 -3.5054481888425533e-02  -3.7426584614642974e-02 -3.2713782899702254e-02 -3.8280923569557021e-02  -3.7264857226897319e-02 -2.8071295606615056e-02 -3.3313204233424598e-02  -3.5430038248536730e-02 -3.3844687289797171e-02 -3.6641617166777461e-02  -3.8643721802243826e-02 -2.9629179793004400e-02 -3.9937684933557198e-02  -3.8381958930142249e-02 -2.5394885990853364e-02 -3.5087567096309828e-02  -3.6779999437828503e-02 -3.0713652610024636e-02 -3.8228018090396713e-02  -3.9904593636864494e-02 -2.6718604499631642e-02 -4.1769901364352012e-02  -3.9721903337268487e-02 -2.2718609571152435e-02 -3.7099072518073692e-02  -3.8034930423329408e-02 -2.7761784895864769e-02 -3.9951284434128972e-02  -2.4001265493938221e-02 -4.2160352705167096e-02 -2.1388062656494008e-02  -2.5678930357700913e-02 -3.9092089921254847e-02 -2.3163963622523293e-02  -2.7555467628809012e-02 -3.5958344146404732e-02 -2.4844287303734960e-02  -2.9495753677496746e-02 -3.2848528555976975e-02 -2.6450390499334109e-02  -3.1355779795426898e-02 -3.0181171038003250e-02 -2.8037206973542585e-02  -3.2941540837246729e-02 -2.7857455627409915e-02 -2.9648082674507723e-02  -3.4081903130957401e-02 -2.5419647283015434e-02 -3.1325993413107649e-02  -2.0346378727802449e-02 -3.8210145435069842e-02 -1.7141011041844859e-02  -2.1833056284797717e-02 -3.5501006113426242e-02 -1.8320475655023725e-02  -2.3509490367550092e-02 -3.2815163530049256e-02 -1.9448132920687988e-02  -2.5275822545934423e-02 -3.0310227665848802e-02 -2.0546747737146702e-02  -2.6821228214215377e-02 -2.8156546032995135e-02 -2.1660706380339147e-02  -2.8075782890061646e-02 -2.6261639135483815e-02 -2.2798012709895950e-02  -2.8989345788160984e-02 -2.4352182072382732e-02 -2.3966164364080968e-02  -2.2107007692907962e-02 -5.0158880075147912e-02 -3.0954041247799571e-02  -2.3427179984872159e-02 -4.8610277488131945e-02 -3.2506053525981050e-02  -2.4967771592448663e-02 -4.6817579680306441e-02 -3.3903646069168770e-02  -2.6720740260517194e-02 -4.4729860171012090e-02 -3.5188327141201375e-02  -2.8596134301672189e-02 -4.2392262973282538e-02 -3.6370891965691002e-02  -3.0499447660289333e-02 -3.9848620582353132e-02 -3.7432295216750761e-02  -3.2039987309194322e-02 -3.6981019353071305e-02 -3.8357414543613119e-02  -2.6714129803229295e-02 -3.7478557480255595e-02 -1.7788467497308717e-02  -2.8535175980491372e-02 -3.3716768167961889e-02 -1.9495978402762657e-02  -3.0589966194890534e-02 -3.0102498122848962e-02 -2.1125124980419067e-02  -3.2509636875509118e-02 -2.7163107611895949e-02 -2.2740836944164431e-02  -3.4149397593217834e-02 -2.4782205720057009e-02 -2.4453810300386989e-02  -3.5398746652383822e-02 -2.2544792167189284e-02 -2.6221887729165307e-02  -3.6551483737967551e-02 -1.9935260054502905e-02 -2.8174920374931373e-02  -2.9134019610406941e-02 -4.0164592621223752e-02 -2.3449780756023879e-02  -3.0940230828157039e-02 -3.6545167401067981e-02 -2.5323308374971962e-02  -3.2944922671679609e-02 -3.2960705444955600e-02 -2.7089008500908351e-02  -3.4823915218119360e-02 -2.9706121872257640e-02 -2.8790885738958098e-02  -3.6313563474187995e-02 -2.6908018313445296e-02 -3.0525231189087496e-02  -3.7442275667338876e-02 -2.4347223667396199e-02 -3.2366279640047374e-02  -3.8791212520416639e-02 -2.1719952338089547e-02 -3.4396761811170788e-02  -2.0462905730457108e-02 -2.7083130667782125e-02 -1.8962021409381188e-02  -3.4327792675574759e-02 -4.5264451133184350e-02 -4.0721226587237785e-02  -3.5642031489542696e-02 -3.9455676773038899e-02 -3.6623140930538950e-02  -3.7443938873226404e-02 -3.5924340987461917e-02 -3.8351831508465779e-02  -3.6107696192461389e-02 -4.2268549541928907e-02 -4.2322700439439219e-02  -3.8926698768398216e-02 -3.2519635024584659e-02 -4.0035185770098958e-02  -3.7765960422924495e-02 -3.8923422060648201e-02 -4.3839088895172247e-02  -4.0118955391309170e-02 -2.9440619090974080e-02 -4.1745876878850577e-02  -3.9178616706573195e-02 -3.5551725278890327e-02 -4.5287636881175347e-02  -4.1355953798554147e-02 -2.6511920744428270e-02 -4.3648587775607831e-02  -4.0474726248927083e-02 -3.2281474790678291e-02 -4.6808893961677527e-02  -2.5251181170430632e-02 -3.6767662324877937e-02 -1.5850428839088451e-02  -2.7109199406459724e-02 -3.2948468638122702e-02 -1.7391821905039552e-02  -2.9152222935453307e-02 -2.9446456892276689e-02 -1.8908463790862445e-02  -3.1024659224888892e-02 -2.6634658035231341e-02 -2.0428166278733759e-02  -3.2606820770334770e-02 -2.4378961712109713e-02 -2.2031258385794922e-02  -3.3895217563545521e-02 -2.2275521663729567e-02 -2.3722041735268456e-02  -3.4990494781794758e-02 -1.9762330987359265e-02 -2.5510564950470448e-02  -2.8083310640791871e-02 -5.7156955467080960e-02 -4.3155570176408434e-02  -2.6305845393751463e-02 -5.4885369458946870e-02 -3.9153348597530294e-02  -2.8679419315430523e-02 -5.3672763558448001e-02 -3.8848758108645139e-02  -3.0196771533700355e-02 -5.1582604428802761e-02 -4.0738182873260517e-02  -2.7797610279522326e-02 -5.3293884175040530e-02 -4.0849050491363913e-02  -2.9579608073602187e-02 -5.5760394248834888e-02 -4.4785092203899153e-02  -3.1801629370562606e-02 -4.9438333643794588e-02 -4.2326592923433971e-02  -2.9315336101329768e-02 -5.1645244077347857e-02 -4.2266512216134290e-02  -2.5292877604199432e-02 -5.8328413374013052e-02 -3.7931625650131078e-02  -2.3765086571142624e-02 -5.6722534483329472e-02 -3.6906289495786768e-02  -2.4323635126796288e-02 -5.7543675706500742e-02 -4.0249302097184907e-02  -2.5570239304810879e-02 -5.8151182067520533e-02 -4.0497423829464835e-02  -2.4981751248485461e-02 -5.7538659894273293e-02 -3.6836152498941920e-02  -3.1084429147320198e-02 -5.0624927905003739e-02 -3.6984817681682811e-02  -2.8784755622768499e-02 -5.0035084436642598e-02 -3.4471730087078233e-02  -3.0310017458371110e-02 -4.7472715942837349e-02 -3.6453816384550822e-02  -3.2603546736991049e-02 -4.7969125851228860e-02 -3.8993226881347411e-02  -3.2073347251575200e-02 -4.4828011133616230e-02 -3.8197486338680003e-02  -3.3969356498628693e-02 -4.1989774276750325e-02 -3.9794141615745036e-02  -3.5726674768892214e-02 -3.8804572890302397e-02 -4.1302866750565367e-02  -3.7184374011508009e-02 -3.5539810351897606e-02 -4.2745675792045530e-02  -3.8493978668409978e-02 -3.2279254988158819e-02 -4.4245596659337090e-02  -2.4799496658672499e-02 -5.7704794499656972e-02 -3.3832486723391973e-02  -2.3568784484653601e-02 -5.6243377455686951e-02 -3.3207070317855206e-02  -2.4794093915972981e-02 -5.7097509899275103e-02 -3.2845214042782747e-02  -2.6006171682547694e-02 -5.8694697826006489e-02 -3.3153806236531511e-02  -2.5987602658900617e-02 -5.7645204196619268e-02 -3.2538941825907906e-02  -2.7164685489849461e-02 -5.9369606673762142e-02 -3.2613200747745569e-02  -2.6210434140640716e-02 -5.7987634575024968e-02 -3.6761278014851281e-02  -2.7212471862857423e-02 -5.7989919230193587e-02 -3.2277263664225612e-02  -2.8352060271279240e-02 -5.9848417572949772e-02 -3.2154131669013389e-02  -2.7464389175400367e-02 -5.8208064092523763e-02 -3.6653843326203014e-02  -2.8487905875002200e-02 -5.8286237783134791e-02 -3.1971518418621635e-02  -2.4629924835941706e-02 -5.665524784