<?xml version="1.0"?>
<VTKFile type="UnstructuredGrid"  version="0.1"  >
<UnstructuredGrid>
<Piece  NumberOfPoints="932" NumberOfCells="4017">
<Points>
<DataArray  type="Float64"  NumberOfComponents="3"  format="ascii">9.250918961619394 2.013707376588747 3.365840233982101  9.146375792317491 1.959686764613508 3.295333092745922  9.259494719873731 1.968490263948421 3.282805838692333  9.266583839920157 1.921980351104521 3.308938844989155  9.152711828627011 1.912880317178977 3.32149193547875  9.258402648132513 1.96624775426431 3.392637162809253  9.273718314861782 1.875455437083497 3.335051108872095  9.159059469943569 1.866053742957618 3.347637663674076  9.265938074100212 1.918780662675375 3.41942126143037  9.280872045526566 1.8289259974973 3.361141207757924  9.165411207930026 1.819217561615923 3.373767370248894  9.273493886877311 1.871307967700135 3.446187086311895  9.288022585358549 1.782391360982063 3.387207493745593  9.171758495480761 1.772373226791066 3.399875591281844  9.281044703391631 1.823826399439473 3.472928131310409  9.295146140620803 1.735841822370441 3.413248240921744  9.178091456314691 1.725510489334015 3.425958076046675  9.288564215316438 1.77632289904019 3.499638076144687  9.302212273759251 1.689254975457997 3.439263773804057  9.184397759224769 1.678605335552223 3.452010853027968  9.296012945790935 1.728770618151617 3.526309844853104  9.524486172983208 1.894423738320423 3.072529535859104  9.425936205174128 1.908122245238897 3.127490306487424  9.454040413016964 1.845006067356836 3.006830537930293  9.462117805287527 1.799990561798499 3.031964015958329  9.433697916343521 1.862879790317049 3.152939067086798  9.532767908874277 1.849343625215287 3.097581882597165  9.441535273791397 1.817632619097159 3.178341634670738  9.541148005670079 1.804271914921158 3.122582606493121  9.47028009895376 1.75497564625529 3.057034723062074  9.549569224306838 1.759214274426862 3.147542702486218  9.44940726917504 1.772393200092095 3.203707192620144  9.47847653700012 1.709969501330268 3.082063338136365  9.557986983863577 1.714172279227788 3.172472275655399  9.45727723812381 1.727158900236281 3.229046545381786  9.486666930538741 1.664978140102654 3.107063166583217  9.566356117211036 1.669141222301906 3.197384520402304  9.465106826151798 1.681925791756036 3.254370310073452  9.494813029272098 1.619999946386539 3.132052485767023  9.574610962654242 1.624105167607541 3.222300768635864  9.472854383015324 1.636682019906344 3.279698687553435  9.502865496133451 1.575028018533279 3.157065589901537  9.106173268294368 2.004537289500544 3.3867556080836  9.112348389271085 1.956507159256393 3.413687881250496  9.118523979701466 1.908454745608153 3.440618898484783  9.124696280462558 1.860394154529095 3.46753642684747  9.130862731855672 1.812323189655337 3.494430899852875  9.137020124474551 1.764228320606335 3.521291869864875  9.14316116961408 1.716075242916831 3.548108956761991  9.233938421346204 1.79753018531484 2.987185471033776  9.111794812874162 1.800545649166652 3.025305589106762  9.175653729274483 1.745342640209099 2.911559987685989  9.182778768388836 1.698988943820645 2.935699832281367  9.118352899274024 1.755372836699925 3.051124515579041  9.241150984343594 1.752384815737196 3.012640818449581  9.189921057341014 1.652617583415595 2.959778947801913  9.124918618835913 1.71018032357636 3.076905948707676  9.248397406111616 1.70722012639642 3.038043293825028  9.197069441957751 1.606249229507294 2.98381980090106  9.131488010110468 1.664983138223322 3.102662278232927  9.255658201798616 1.662051289689505 3.063411749588939  9.204209094961694 1.559892028912796 3.007840611697807  9.138051604651805 1.619786723917534 3.128400900774147  9.262913762384699 1.616885575859003 3.088760116736033  9.211324768689726 1.513553486854173 3.031863055760142  9.144599034984356 1.574592527523099 3.154133698832636  9.270144081066581 1.571725968212041 3.11410670587014  9.218409662598631 1.467241118494792 3.055919658157674  9.151123974899932 1.529403629372927 3.179886977472352  9.2773283483534 1.526577134850723 3.139486355892784  9.41830148626337 1.643382968073219 2.723074582575824  9.561615566077061 1.641220067113647 2.65447893951913  9.432785009215388 1.610125665712554 2.600180355191136  9.553213561971107 1.692242699470965 2.639569533554867  9.426759377885492 1.593637514868357 2.740687860703411  9.570035501171018 1.590233652626806 2.66929588324331  9.440870852430967 1.557862730038447 2.61106941567902  9.435227025009036 1.543922334411281 2.758244459305654  9.578444181143873 1.53930262850067 2.684055724145317  9.448951915157117 1.505644631339751 2.621889858043449  9.443678852163966 1.494242886421793 2.775774962700814  9.315301173223533 1.862011725409944 3.078031271501674  9.322764280062762 1.816932538696325 3.103356067005297  9.330285903766857 1.771839484979805 3.128637748085295  9.337833439908536 1.726744190007989 3.153885496710627  9.345378550597824 1.681651370863371 3.179110451187882  9.352892651996189 1.636559904196288 3.204327655262742  9.360341367100661 1.591462404485242 3.229559638042024  9.531450350609168 1.728503791488539 2.735953809879736  9.409877606585853 1.693143319431934 2.705364267881262  9.540594936005231 1.680330778823749 2.756113298766748  9.549828950637805 1.632180973624405 2.776185638097265  9.559085605802967 1.58405514163403 2.796203786879412  9.56832905113186 1.535956636573396 2.81619318251358  9.586837609042124 1.488437148764276 2.698785212298447  9.577523470425488 1.487889862301967 2.836177320320437  9.595209206964054 1.437646002129307 2.713515477497376  9.452094264296669 1.444605793396784 2.793305881439113  9.586606884420551 1.439863350418983 2.856196155826101  9.60353357279309 1.386910975642145 2.728275697480514  9.460455404707185 1.395017150803877 2.810881404730827  9.184474899027624 2.049949990349765 3.447522700162807  9.191690606516159 2.001432323021779 3.475474946902072  9.198940881221477 1.95289812532356 3.503434322344683  9.20620110834372 1.904353177317983 3.531382141844783  9.213453909637144 1.855794266857616 3.559305710324684  9.220680937881308 1.807205465361875 3.587193421985621  9.227853806389467 1.758556961949861 3.615030005399384  9.709407690944154 1.902123005603988 3.02440005285621  9.592225169336851 1.859660044431384 2.985826730414292  9.699504934978968 1.855332441064002 2.942065743638327  9.707623368390083 1.810185002371635 2.966471151552831  9.600697719174043 1.814689324940672 3.010490471712902  9.717510533272618 1.857205742179049 3.049242161670457  9.715815567555602 1.765073341482306 2.990815330725347  9.609272388825071 1.769741949500768 3.035090976674607  9.725697163310304 1.812319390240226 3.074029259630966  9.724039519322716 1.719992018051312 3.01511518702274  9.617887576893594 1.724815545607013 3.059648236992586  9.733918977354479 1.76746181776472 3.098772342408028  9.732256263999231 1.674937076889004 3.03938026471122  9.626498596568622 1.679907857777652 3.08417454606258  9.742137660905197 1.722629460318233 3.12347890378809  9.74042730596223 1.629906780613282 3.063620262559307  9.635059894078843 1.635016177054113 3.108683201465833  9.750312918549753 1.677821612959735 3.148155713284262  9.748515055716656 1.584912079078024 3.08784697398292  9.643499770878918 1.59014119116891 3.133193685269172  9.758388515846658 1.633044231290631 3.172811771673822  9.053451292158375 1.732215234040939 2.92071080190189  9.060612111427776 1.685946618748096 2.945343810742381  9.06779233270996 1.639662530312767 2.969930781990021  9.074979874029337 1.593378562257735 2.994487633875786  9.082159599475677 1.547101132190012 3.019027865850384  9.089314692463189 1.500835381716854 3.043568388832449  9.096429032604737 1.454590155402958 3.068138820613463  9.616973285751035 1.926811391757401 3.099994983667287  9.625444642457371 1.881728438601003 3.125023006237132  9.634022233068773 1.83667260446819 3.149999884197557  9.642644729824832 1.791640151579214 3.17493539704942  9.6512649692463 1.746626901877976 3.199837090335987  9.6598335033314 1.701626763888976 3.224712914883857  9.668276213895815 1.656628950260787 3.249574261361489  10.03984147862216 2.226348394719944 3.421725925985607  10.01193616215183 2.296685405710492 3.520221804026187  9.923518264539888 2.205228622759854 3.434460237061309  9.93490343857925 2.161442049767071 3.467923667333565  10.02395079542228 2.254437363602232 3.558092662096177  10.05001830361192 2.183338746617562 3.456209560147581  9.946356211530489 2.117704904504752 3.501329887556471  10.03596240608238 2.212215437951124 3.59588774419749  10.06019095294298 2.14037309952941 3.490630943499025  9.957843670350931 2.074011954727003 3.534697421672738  10.0479843920236 2.170035489699097 3.633633018059499  10.07036863380568 2.09744440884566 3.52501298968644  9.969324745257886 2.030343701914614 3.568018540993776  10.06000098914388 2.127880157009638 3.671324094070142  10.08054086310018 2.054531669235125 3.559347898230558  9.980757873317923 1.98668991603327 3.601282064052555  10.07198908993941 2.085746288904322 3.708944994392793  10.09070129190978 2.01162981735118 3.593622278351318  9.992069229144667 1.943043128249598 3.634472609780897  10.08388741485013 2.043633208897166 3.746483609852024  10.10080983223401 1.968759282193734 3.627808490168735  9.336868105868648 1.940999841042107 3.212389324949369  9.344326011925144 1.895277658500508 3.238252964933476  9.351845093762471 1.849544186366745 3.264083994258761  9.359391955526275 1.803809205632118 3.289886258228228  9.366937032507758 1.758074128047967 3.315663414337766  9.374450736124908 1.712332204778161 3.341421087296365  9.381897047278805 1.666569864178201 3.3671675487356  9.115052741067467 1.688629813601506 2.812490695256929  9.12268219605844 1.640572821377027 2.834375978465501  9.130340181946332 1.592507026931747 2.856176460632742  9.1380113771302 1.544446839541991 2.877933471832157  9.145672713974605 1.496400297652327 2.899672083006349  9.153299825069793 1.448378101264741 2.92141743746317  9.160876779799297 1.400399998091809 2.943211225640894  9.893284387410402 2.269490201315185 3.527292891471881  
[...]
<PointData  Vectors="f_16"> 
<DataArray  type="Float64"  Name="f_16"  NumberOfComponents="3" format="ascii">-2.0830781599123625e-02 -7.4109886677869150e-02 -5.1533033157387669e-04  -1.9458502902493641e-02 -8.2739084197259977e-02 4.9701908492591510e-03  -2.0606154459016299e-02 -8.1639024414619496e-02 3.3549115608041313e-03  -1.9484203644945960e-02 -7.9189004132055776e-02 6.9546817571762261e-03  -1.8275121873455976e-02 -8.0237257518667227e-02 8.6784315758111109e-03  -1.9779066909678147e-02 -7.0989872299709239e-02 3.5564061554470049e-03  -1.8451116143828262e-02 -7.6650083544948691e-02 1.0119651686607917e-02  -1.7177113595716047e-02 -7.7660842253265416e-02 1.1937969127596603e-02  -1.8780394466694817e-02 -6.7962393132211779e-02 7.1466033468916071e-03  -1.7481676817122416e-02 -7.3963789675839040e-02 1.3027503426563523e-02  -1.6143678602672528e-02 -7.4935580627425835e-02 1.4928952139945341e-02  -1.7826306740418706e-02 -6.4904621551625422e-02 1.0497359452982753e-02  -1.6562048233050970e-02 -7.1052609123528426e-02 1.5834426247602593e-02  -1.5156002296911044e-02 -7.1979447344338976e-02 1.7815683571348873e-02  -1.6909949977312981e-02 -6.1687608744082023e-02 1.3805417572561866e-02  -1.5683315820871690e-02 -6.7809761604223237e-02 1.8685767357039400e-02  -1.4201258457196289e-02 -6.8679562029856617e-02 2.0753668571459286e-02  -1.6023638983555046e-02 -5.8183230880321929e-02 1.7260650292273388e-02  -1.4831235152154948e-02 -6.4103153222475215e-02 2.1732291164452577e-02  -1.3275423327281566e-02 -6.4891187625605154e-02 2.3908249754859171e-02  -1.5163675641750328e-02 -5.4254430101628212e-02 2.1077469090602624e-02  -2.3452478460378422e-02 -9.0464812942012557e-02 5.6639080048720781e-03  -2.2209245557122621e-02 -8.9358962449780088e-02 6.1573011111390151e-03  -2.2598030988082312e-02 -9.3596787874305559e-02 8.3516846824254459e-03  -2.1530456585505564e-02 -9.2895258731246128e-02 9.5693058899430482e-03  -2.1116156916372752e-02 -8.7968037318794309e-02 8.5065298734275253e-03  -2.2393157577077282e-02 -8.9388255285884108e-02 7.5562161247880472e-03  -2.0111373533449092e-02 -8.6293280516853366e-02 1.0569233357774621e-02  -2.1418692434952424e-02 -8.7982541966710556e-02 9.2220711435387643e-03  -2.0541450952707041e-02 -9.1814227818635172e-02 1.0657336901639383e-02  -2.0526704809765824e-02 -8.6290250701940144e-02 1.0715229415641566e-02  -1.9188577122538689e-02 -8.4346174730274281e-02 1.2431341330448226e-02  -1.9634420009599265e-02 -9.0418914069020528e-02 1.1620980558311443e-02  -1.9703076715715799e-02 -8.4320963957739234e-02 1.2055715820443642e-02  -1.8331356205011095e-02 -8.2119690751503216e-02 1.4143568034644885e-02  -1.8795456986268892e-02 -8.8752347961775627e-02 1.2428771518990335e-02  -1.8941521310648912e-02 -8.2055953476391857e-02 1.3248280675351420e-02  -1.7530255142594250e-02 -7.9570370257277437e-02 1.5740098575983977e-02  -1.8016078413592533e-02 -8.6831730367916179e-02 1.3029480440651928e-02  -1.8240178489979681e-02 -7.9447251996479687e-02 1.4289967836262258e-02  -1.6779875905021110e-02 -7.6622216781479055e-02 1.7244481815129588e-02  -1.7299629972608310e-02 -8.4651253881916522e-02 1.3327823366377670e-02  -1.9500205662512100e-02 -7.4879878223877788e-02 1.2390053299476775e-03  -1.8326914562145989e-02 -7.1643229100381539e-02 5.4542893109763282e-03  -1.7227037373584133e-02 -6.8531615481007835e-02 9.1902609999793220e-03  -1.6167935776418587e-02 -6.5395974846703578e-02 1.2679881997717257e-02  -1.5146854639546846e-02 -6.2097058830554670e-02 1.6130792241876673e-02  -1.4148145277190102e-02 -5.8496039282300169e-02 1.9748776976222703e-02  -1.3152323961340464e-02 -5.4460650892954869e-02 2.3774751723216799e-02  -1.9962420246029029e-02 -9.6873869075595184e-02 1.3007115679207726e-02  -1.8471678972046334e-02 -9.7901749605065036e-02 1.5024140565366830e-02  -1.9469567091135117e-02 -9.8307128632154933e-02 1.4376906466810392e-02  -1.8351929727122775e-02 -9.8100855732902337e-02 1.4420446258093357e-02  -1.7290762033630457e-02 -9.7273180672303616e-02 1.6173430626590522e-02  -1.8826065156202304e-02 -9.6371032130118814e-02 1.3853001674224076e-02  -1.7324703582365011e-02 -9.7498189521693174e-02 1.4493294318444217e-02  -1.6178319220995104e-02 -9.6229363079022537e-02 1.7199991002241684e-02  -1.7767021376397660e-02 -9.5452106417453914e-02 1.4627324580042884e-02  -1.6365543339595241e-02 -9.6585577208873577e-02 1.4508510368311821e-02  -1.5146997462960552e-02 -9.4844434990135063e-02 1.8090821595665846e-02  -1.6788235270918973e-02 -9.4202095601309488e-02 1.5299476286841689e-02  -1.5459318183453568e-02 -9.5436729727041147e-02 1.4372580920083386e-02  -1.4176959344527508e-02 -9.3165106546906837e-02 1.8805914518102491e-02  -1.5869550404193428e-02 -9.2679168546900809e-02 1.5813693198956900e-02  -1.4593687342141391e-02 -9.4114981098715592e-02 1.3989119755903017e-02  -1.3254021051952225e-02 -9.1212873281871415e-02 1.9283212043154661e-02  -1.4998682122549876e-02 -9.0920447003492083e-02 1.6092505147161845e-02  -1.3761332529506936e-02 -9.2700102390786257e-02 1.3257162825137645e-02  -1.2370899356019800e-02 -8.8983642909125388e-02 1.9426544604266918e-02  -1.4173223299121024e-02 -8.8932776836271848e-02 1.6009928389200036e-02  -2.2839057237442447e-02 -9.3594987403454843e-02 5.3994280381058878e-03  -2.5287351326698120e-02 -9.1077276151774425e-02 9.1995374579683081e-04  -2.4346223377465975e-02 -9.0275227487568652e-02 1.3784604436819585e-03  -2.5860376139641879e-02 -9.1317277894089749e-02 2.4721915282059567e-03  -2.2120462520322549e-02 -9.3263971120642261e-02 4.2677033000939474e-03  -2.4715204656268874e-02 -9.0713865985641254e-02 -4.0980984238758001e-04  -2.3855752308469581e-02 -8.9791555055375172e-02 -2.4905669913607466e-04  -2.1434390197325431e-02 -9.2779372239554958e-02 3.1891739629358188e-03  -2.4158445642553737e-02 -9.0247009726775351e-02 -1.6892100198497078e-03  -2.3370535545872928e-02 -8.9270559747917477e-02 -1.7978953668638853e-03  -2.0777800660657625e-02 -9.2199587643446421e-02 2.0424907271475007e-03  -2.0820818751704603e-02 -9.3262883244024292e-02 9.7797952444222055e-03  -1.9709306140736689e-02 -9.2239447064325686e-02 1.1610456554201230e-02  -1.8666835580108336e-02 -9.0868989653510979e-02 1.3211051810383708e-02  -1.7705365242967314e-02 -8.9191465123174649e-02 1.4638501411880367e-02  -1.6808970241605676e-02 -8.7223745007826189e-02 1.5900518703380294e-02  -1.5966249653503566e-02 -8.4953163581984278e-02 1.6987360332998171e-02  -1.5172006131307205e-02 -8.2324717198547656e-02 1.7875239650603364e-02  -2.4880518948429655e-02 -9.3443593327011562e-02 5.5220151853489011e-03  -2.3579962163139043e-02 -9.3699252818743306e-02 6.7484146862237101e-03  -2.4095601389459834e-02 -9.3445122797839522e-02 4.4673229163137151e-03  -2.3353498574092517e-02 -9.3136890124847299e-02 3.6147264059423253e-03  -2.2647374560364631e-02 -9.2629212388287113e-02 2.8191231598373987e-03  -2.1975502642137594e-02 -9.1993322865101132e-02 1.9516448300030780e-03  -2.3626208421931052e-02 -8.9720209539274010e-02 -3.0375684598336447e-03  -2.1341756643934204e-02 -9.1289498129967575e-02 8.9313402857987953e-04  -2.3124263223963978e-02 -8.9193719477367872e-02 -4.5392821866732398e-03  -2.0145347004332556e-02 -9.1582175339439048e-02 7.2828426891018399e-04  -2.0755145748780020e-02 -9.0573107338874526e-02 -4.8314484344544578e-04  -2.2632883082909325e-02 -8.8772706324313874e-02 -6.2251023597129041e-03  -1.9534018480544084e-02 -9.1000266399377486e-02 -8.3217299361299120e-04  -2.0562272523610502e-02 -6.6579687591027226e-02 -3.3733311916056517e-03  -1.9528314966139382e-02 -6.2821365067750698e-02 9.1582697149378842e-04  -1.8513293568953957e-02 -5.9380511505898258e-02 4.7663248828839072e-03  -1.7507618668916453e-02 -5.5991270107851189e-02 8.4602033312491214e-03  -1.6553676088407094e-02 -5.2515871738443867e-02 1.2169044101481659e-02  -1.5615065199152138e-02 -4.8826718223462122e-02 1.6102847743673758e-02  -1.4684679268509533e-02 -4.4793836267653778e-02 2.0493330972619007e-02  -2.6040905367343860e-02 -8.9873784397379780e-02 2.9050351127093122e-03  -2.4462860515305405e-02 -9.2429850799307461e-02 5.8210300134575984e-03  -2.6019637287670590e-02 -9.2181907945702787e-02 4.1193355868075539e-03  -2.5033582161452645e-02 -9.1696615890612593e-02 4.9645977538122256e-03  -2.3448635553734807e-02 -9.1791144355563861e-02 6.9601383758029281e-03  -2.5014219441651973e-02 -8.8995303865650174e-02 4.4933253501113768e-03  -2.4115283913035294e-02 -9.0847840556091922e-02 5.7241439485191566e-03  -2.2498169622705105e-02 -9.0785399732415950e-02 7.9762079965844182e-03  -2.4068402433327446e-02 -8.7783983240638547e-02 5.8981737438917213e-03  -2.3271396281438192e-02 -8.9701505171260798e-02 6.3859759998494865e-03  -2.1629621642900287e-02 -8.9474493655881532e-02 8.8744337633067470e-03  -2.3204105079525705e-02 -8.6289226807846786e-02 7.1516009572133929e-03  -2.2490453061822062e-02 -8.8303701595979875e-02 6.9100688471862874e-03  -2.0829792552366277e-02 -8.7899723996577361e-02 9.6276624033411196e-03  -2.2406815880668517e-02 -8.4531678964401974e-02 8.2577014789596195e-03  -2.1764792498498928e-02 -8.6683623552961483e-02 7.2375434743747573e-03  -2.0093149495943693e-02 -8.6077968264583471e-02 1.0189286029853035e-02  -2.1667741414790487e-02 -8.2505072362760473e-02 9.2039982713334537e-03  -2.1089160929659085e-02 -8.4851932610307074e-02 7.2692427564703573e-03  -1.9426686413159519e-02 -8.3989175932430257e-02 1.0474545955518898e-02  -2.0982399808085202e-02 -8.0169177494612776e-02 9.9552705063223248e-03  -1.8046865292035551e-02 -9.9860636804199210e-02 1.6806035297475104e-02  -1.6868892700140182e-02 -9.9680303722811073e-02 1.6831408579565183e-02  -1.5797316423451446e-02 -9.9097958725512428e-02 1.6885808169895891e-02  -1.4800976597155742e-02 -9.8191560030412808e-02 1.6876123554083484e-02  -1.3858229330687382e-02 -9.7038511066727270e-02 1.6707212021323165e-02  -1.2951639015736928e-02 -9.5706762129764381e-02 1.6280049042400858e-02  -1.2065198193780779e-02 -9.4275608775476041e-02 1.5485850937744192e-02  -2.4722529403259322e-02 -8.7922099073264329e-02 3.0540996376080621e-03  -2.3670928214381947e-02 -8.6639844431668347e-02 5.2508408883155354e-03  -2.2716661711822361e-02 -8.5076513233235659e-02 7.1794513238118982e-03  -2.1843375715560411e-02 -8.3251814264397234e-02 8.9152265787663942e-03  -2.1038746746543623e-02 -8.1160288583202775e-02 1.0505364091344938e-02  -2.0295087810085301e-02 -7.8765070167647791e-02 1.1982570169274656e-02  -1.9612598476479583e-02 -7.5995946651721394e-02 1.3368279546966781e-02  -3.2816077528314190e-02 -5.3314659029638597e-02 -1.9638270989761428e-02  -3.2777627353122459e-02 -4.1986890772777424e-02 -2.3737092644975172e-02  -3.0703442832669497e-02 -5.4048793773752428e-02 -1.7705187833046854e-02  -2.9975667152021823e-02 -5.0100928531057659e-02 -1.4394195045976943e-02  -3.2163272641909935e-02 -3.7606445018690024e-02 -2.1095802212394998e-02  -3.2033756310885675e-02 -4.9353064315229997e-02 -1.6498340645830906e-02  -2.9254543152825260e-02 -4.6479701927193806e-02 -1.1381515928273430e-02  -3.1492300833068324e-02 -3.3654930864250747e-02 -1.8574373009087469e-02  -3.1287301945103867e-02 -4.5702811287073215e-02 -1.3627628428378804e-02  -2.8548123768451696e-02 -4.2988776569237282e-02 -8.4626976695743351e-03  -3.0860125167021822e-02 -2.9915891188693519e-02 -1.5998148440595557e-02  -3.0558913996886997e-02 -4.2197227298609460e-02 -1.0834735639329742e-02  -2.7848554724972260e-02 -3.9486994159413945e-02 -5.4769969961947079e-03  -3.0330352980248009e-02 -2.6316161351287341e-02 -1.3275558719378248e-02  -2.9836748150406014e-02 -3.8691322225045573e-02 -7.9776709895922962e-03  -2.7139682102354672e-02 -3.5861559299782436e-02 -2.3086955045122561e-03  -2.9734614402774355e-02 -2.2685204686950001e-02 -1.0280254575070981e-02  -2.9093069621714922e-02 -3.5070984064368246e-02 -4.9414255932440053e-03  -2.6429731670990060e-02 -3.1998497337405431e-02 1.1761121631524924e-03  -2.8978132626011538e-02 -1.8917240535878160e-02 -6.9096568649631334e-03  -2.8327911170267291e-02 -3.1211914424081007e-02 -1.6302601605943511e-03  -2.1287993788883564e-02 -8.5670032279714259e-02 4.9101639207505769e-03  -2.0160327358667646e-02 -8.3714711790585331e-02 7.9670110594576137e-03  -1.9143442464223989e-02 -8.1566554836925959e-02 1.0653799554875758e-02  -1.8199108142313361e-02 -7.9204481945185506e-02 1.3103780030267773e-02  -1.7314259436296570e-02 -7.6580119564546592e-02 1.5423360816700583e-02  -1.6479569122306862e-02 -7.3615026606896700e-02 1.7704845510883725e-02  -1.5687641427610931e-02 -7.0199082305942365e-02 2.0027689778729277e-02  -1.9305039317469706e-02 -9.8295195909593819e-02 1.4455039762084777e-02  -1.8282257712192818e-02 -9.8266475476767104e-02 1.3552372082994887e-02  -1.7329616971195224e-02 -9.7929370813456040e-02 1.2817624733620692e-02  -1.6432246167122595e-02 -9.7345138764594982e-02 1.2099472759457034e-02  -1.5574709427258188e-02 -9.6592973264670312e-02 1.1272926884845377e-02  -1.4743836737783261e-02 -9.5741262101261521e-02 1.0232875378325117e-02  -1.3928103178226117e-02 -9.4840330245713214e-02 8.8726224226135728e-03  -3.0559198209218718e-02 -4.3390659283307688e-02 -2.1560586828740860e-02  -2.9984634826902095e-02 -3.8951160756996922e-02 -1.8773496853568754e-02  -2.9320197746565423e-02 -3.4950800641806973e-02 -1.6089548154447807e-02  -2.8680745196529207e-02 -3.1146089292686280e-02 -1.3382240491659810e-02  -2.8154693195430805e-02 -2.7464675750221854e-02 -1.0547377127575964e-02  -2.7593099330008510e-02 -2.3793769642793377e-02 -7.4374180505211961e-03  -2.6911154570557289e-02 -1.9997341909517557e-02 -3.9391343507194157e-03  -2.2243393734810095e-02 -3.5497293053796605e-02 -1.4764941988053408e-02  -2.1145275055034444e-02 -4.2231033284837072e-02 -1.1152138378353283e-02  -2.1300802518854578e-02 -4.6363730205448657e-02 -1.0844524993799098e-02  -2.0383170070881924e-02 -4.1326493803960362e-02 -7.4935665214013025e-03  -2.0124743940157355e-02 -3.7043038373085452e-02 -8.1482378514310394e-03  -2.1304860524573421e-02 -3.0234020529541984e-02 -1.2234597070452501e-02  -1.9273549709853365e-02 -3.6746061112781732e-02 -4.2543872623993107e-03  -1.8893390622876888e-02 -3.2283305556545919e-02 -5.1344757989743896e-03  -2.0157441352913492e-02 -2.5343250094306231e-02 -9.6349621907285028e-03  -1.8184629193320839e-02 -3.2326953881717677e-02 -8.4547768639355177e-04  -1.7659086297230925e-02 -2.7697668475362969e-02 -1.8989124243220428e-03  -1.9218171763303652e-02 -2.0807912643553528e-02 -6.7886107351932696e-03  -1.7180292292016053e-02 -2.8063872958381218e-02 2.7710139830342301e-03  -1.6588914183414766e-02 -2.3454866708686028e-02 1.5876581431376418e-03  -1.8702961707461264e-02 -1.6842339213770711e-02 -3.6336608324199601e-03  -1.6405407423837181e-02 -2.4140966718347538e-02 6.6672649913541715e-03  -1.5827719978293540e-02 -1.9710458291704380e-02 5.3910535499227382e-03  -1.8521447294123052e-02 -1.3476515080228244e-02 -1.3019068097191297e-04  -1.5644643279423987e-02 -2.0344415264005822e-02 1.1183061917785416e-02  -1.5080289054028286e-02 -1.6216835118556792e-02 9.7780828471136869e-03  -1.8073892022039472e-02 -1.0281757356443034e-02 3.9927497400321045e-03  -2.8148799992581752e-02 -1.8428445680673148e-02 -2.6381870450447476e-02  -2.6930395424062652e-02 -1.5380172024172066e-02 -2.5520475771838143e-02  -2.6761234353010057e-02 -2.5489937671635283e-02 -2.3639147509685758e-02  -2.5848746767554141e-02 -2.0470110330374571e-02 -2.2183355084233591e-02  -2.2382187341792786e-02 -3.0990684890924842e-02 -1.5039857217486251e-02  -2.1372134284847934e-02 -2.5709298117963686e-02 -1.3080848727889959e-02  -2.0254997098685352e-02 -2.0770185662885465e-02 -1.0869236050394358e-02  -1.9394117001133190e-02 -1.6359999730400757e-02 -8.3565670795633720e-03  -1.8884444402115806e-02 -1.2651966875257950e-02 -5.4943896419834002e-03  -1.8514640938592865e-02 -9.7069437926083496e-03 -2.2946292671201965e-03  -1.7819099400521711e-02 -7.0789743078183308e-03 1.4627822470131390e-03  -2.0083100034183583e-02 -9.0492871240419367e-02 8.7706747781627886e-03  -1.8923404309719762e-02 -8.8944538399648651e-02 1.1355496083635898e-02  -1.7856440649514291e-02 -8.7118998629021865e-02 1.3616762504070030e-02  -1.6864939427117167e-02 -8.5023993625957625e-02 1.5660757324539580e-02  -1.5934510180974519e-02 -8.2638800272786903e-02 1.7552820917465649e-02  -1.5054543330249120e-02 -7.9909572762601924e-02 1.9339432625708915e-02  -1.4217550701665211e-02 -7.6773409789594932e-02 2.1055721020952250e-02  -1.7923131349041596e-02 -9.9751161396985949e-02 1.6807138496591822e-02  -1.6837680651150096e-02 -9.9763235293950633e-02 1.5870975948908090e-02  -1.5852629865196449e-02 -9.9433611863804006e-02 1.5092400628319458e-02  -1.4927088994513704e-02 -9.8847647569501845e-02 1.4321640968759392e-02  -1.4045255976419542e-02 -9.8088619569743393e-02 1.3430426106794414e-02  -1.3192569844581148e-02 -9.7225560965451041e-02 1.2312538451969945e-02  -1.2359925521011955e-02 -9.6303349791733758e-02 1.0871140724367928e-02  -1.7068168290747431e-02 -8.8020258616745353e-02 1.3076863853665159e-02  -1.6869498166561379e-02 -8.0843813846388918e-02 1.0521959825718291e-02  -1.5697517006469753e-02 -7.8135398772799236e-02 1.3914555995287925e-02  -1.5927939924742757e-02 -8.5885805519809205e-02 1.5783610037884421e-02  -1.4591708535960160e-02 -7.5291684174782408e-02 1.7032082471011092e-02  -1.4860104388077345e-02 -8.3509246605557752e-02 1.8237114618201624e-02  -1.3527331853774324e-02 -7.2208782900719928e-02 2.0046362815104846e-02  -1.3845661883069071e-02 -8.0844605755888449e-02 2.0542637895983512e-02  -1.2488015146638972e-02 -6.8763797327657139e-02 2.3119138679119675e-02  -1.2871418711586114e-02 -7.7809457254655892e-02 2.2789047494990149e-02  -1.1456304111061199e-02 -6.4807231627553807e-02 2.6427239073921464e-02  -1.1936822612019313e-02 -7.4283280852750530e-02 2.5046045287968392e-02  -2.5709348842665319e-02 -2.2732455884947503e-02 -2.3073892929920150e-02  -2.4669666954535326e-02 -1.7673707762079421e-02 -2.1741015194058008e-02  -3.5110961028307054e-02 -4.8779169725182869e-02 -2.2909545944352839e-02  -3.4325970959770122e-02 -4.4687465340338163e-02 -2.0046202005863573e-02  -3.3570969696895568e-02 -4.0966841349306934e-02 -1.7375798074832506e-02  -3.2847193858706061e-02 -3.7381336717617182e-02 -1.4739208433878749e-02  -3.2151807105660062e-02 -3.3818912314062394e-02 -1.1994031474012819e-02  -3.1397323837542089e-02 -3.0185311942054864e-02 -9.0506892709109193e-03  -3.0585736542280830e-02 -2.6379081187730340e-02 -5.8099240852766626e-03  -2.7947268408030034e-02 -3.0382002012171883e-02 -2.3577796121293917e-02  -1.9678404780314959e-02 -8.7438960558773537e-02 7.3222787822027641e-03  -1.8497030119759283e-02 -8.5465034706659379e-02 1.0466927599187189e-02  -1.7409376165928626e-02 -8.3285854894921074e-02 1.3223708563051500e-02  -1.6395005525400196e-02 -8.0886697795054710e-02 1.5731539161974031e-02  -1.5436318299410893e-02 -7.8216651353772815e-02 1.8104424275758948e-02  -1.4520032891468547e-02 -7.5195296655330854e-02 2.0438910227872798e-02  -1.3638323248128930e-02 -7.1701340090959451e-02 2.2816238903869000e-02  -2.4712299768049631e-02 -3.9272478732418181e-02 -1.7672140710144925e-02  -2.4698455449082658e-02 -3.0877532899706284e-02 -2.0009965643020034e-02  -2.3439618955520544e-02 -3.6169206538537536e-02 -1.6961652372012602e-02  -2.2713537687552392e-02 -3.0986157926844237e-02 -1.4395234036656074e-02  -2.3864659947675154e-02 -2.5646626759764531e-02 -1.8054955429775831e-02  -2.4113690875987602e-02 -3.4379026297529064e-02 -1.4943639976974676e-02  -2.1767173004718060e-02 -2.6276226907837315e-02 -1.1837639147055417e-02  -2.2938826152461456e-02 -2.0867524092176262e-02 -1.5978035884277476e-02  -2.3376139685691865e-02 -2.9953220675620767e-02 -1.2253770879750582e-02  -2.0952034455096722e-02 -2.1820817122075068e-02 -9.0625026322759539e-03  -2.2404081530479462e-02 -1.6697529770863404e-02 -1.3681950716635829e-02  -2.2679891482563379e-02 -2.5725478356584675e-02 -9.3946171468025051e-03  -2.0607883814122322e-02 -1.7933890231415440e-02 -6.0235176177536112e-03  -2.2424033118085055e-02 -1.3254773091532737e-02 -1.1101456128527211e-02  -2.2253270791391475e-02 -2.1838619055438772e-02 -6.3162942223218355e-03  -2.06