<?xml version="1.0"?>
<VTKFile type="UnstructuredGrid"  version="0.1"  >
<UnstructuredGrid>
<Piece  NumberOfPoints="992" NumberOfCells="4191">
<Points>
<DataArray  type="Float64"  NumberOfComponents="3"  format="ascii">0.8536311479773994 4.018705003563555 1.362761556823412  0.7447835235525281 4.041751128318691 1.424466258428668  0.8510204681792201 4.062297008867845 1.532048229237119  0.8562419788907609 4.146682737038542 1.515671297548134  0.7499653137095879 4.128615549985912 1.399665634860535  0.8588214799333753 4.101905169911079 1.333115063767979  0.7548060758660065 4.214746802632009 1.375031690840075  0.8635671476518574 4.184474188955419 1.30368235277463  0.8610885757000931 4.230465959690938 1.499364944745691  0.8680390935010257 4.26656917571252 1.274472612276816  0.7594158457527801 4.300178562054109 1.350687648822031  0.8656985147753623 4.313690398907676 1.483241303534747  0.8724219089137748 4.348094104238588 1.245478268270765  0.7639735107921501 4.385011614759241 1.326581465306937  0.8702807363239454 4.396395895555409 1.467275001184089  0.8770061785959593 4.429010163268345 1.216602631369778  0.7687060483312923 4.469234945602353 1.302656126885144  0.8750281307305365 4.478527279091963 1.451415526762533  0.8822940019541081 4.509295153105906 1.187874888920234  0.7739945919125779 4.552700743117487 1.278890093073135  0.8802277295242851 4.559919997844944 1.43559929270107  1.435871180877924 4.073286040308703 2.214305145239449  1.566157205714947 4.08001075383731 2.183235775784677  1.4486501191521 4.081209055625369 2.068333767487875  1.44804506612612 4.150437446367949 2.069709365768089  1.564285774053274 4.147670572604251 2.187545145399381  1.434904374227731 4.140741509337192 2.219766576950663  1.447429734428627 4.219526556036779 2.071024420469049  1.562470671859626 4.215214347115404 2.191799500900252  1.433950127322865 4.208088151318142 2.225152636137073  1.446823431184899 4.288443557735558 2.072296977503246  1.560691198436813 4.28261540142777 2.196013017086036  1.433013392583904 4.275299182762774 2.230489348505147  1.446243363142103 4.357199407444551 2.073551088540833  1.558930103010755 4.34988143787316 2.200208031626306  1.432104057195599 4.342373600862693 2.235804647185559  1.445716002179307 4.425815716726098 2.07480656561398  1.557173090726218 4.417030851944532 2.204402899423582  1.431237518425383 4.409319189624541 2.24112785554446  1.445295843345506 4.494324645663866 2.076071226651876  1.555419768257079 4.484091657980334 2.20859716332214  1.430436296812557 4.476147326020878 2.246486311877536  1.334120643390307 4.080472678837738 2.095203715836461  1.327961906248413 4.08234437987106 1.955660573901678  1.328660507894378 4.153788822220737 1.954794637238206  1.334406460564744 4.150103676978606 2.097723582469315  1.329274358285649 4.225059026197233 1.953862292596364  1.334633324496967 4.21957889459334 2.100162169826618  1.329856606574169 4.296127779867096 1.95289507416488  1.334847825057452 4.288885125725497 2.102551513912516  1.330458706341653 4.366995935425138 1.951921536400075  1.335094567992431 4.358018907936724 2.104919603131096  1.331163265637371 4.437675297562112 1.950953310271338  1.335430715547796 4.426986187549469 2.107295164582371  1.33207829762539 4.508176001488988 1.949989903193204  1.335931704804483 4.495792128634202 2.109712333869233  0.9877141489670405 4.045184782034979 1.497473625444917  0.979860965031331 4.070271741062558 1.636296417885678  1.098549041421393 4.05852351613164 1.617406593427854  1.101985981938754 4.136870510375931 1.605173241229169  0.9845602852009516 4.150722968917856 1.624518407494648  0.9928117615416491 4.126373245193623 1.478779000182276  1.105135017656353 4.214855216766738 1.592978184473453  0.9889348381968586 4.230759880268777 1.612761705627425  0.9974848744157243 4.207084960578522 1.460174077843787  1.108110142009409 4.292477308595906 1.580845737846123  0.9931182197012779 4.310367553407815 1.601082536275559  1.001923093281137 4.287318789429564 1.441712856366923  1.111049334519044 4.369737178467323 1.568763861025637  0.9972897386556419 4.389553732836535 1.589458596795528  1.006320497407313 4.367106666647389 1.423344112547007  1.114149595747018 4.446621053773073 1.556657739724873  1.001632202680143 4.468295058813097 1.577863731711062  1.010886262030442 4.446414882541921 1.404980471851495  1.1176528668721 4.523067167316103 1.544525240098036  1.006394632225396 4.546530489347898 1.566264711992253  1.01598009487956 4.525211670830201 1.386630292815665  1.212658517222337 4.081079779121684 1.845327752612063  1.212457736639317 4.082497766901585 1.992646855266787  1.214111661097717 4.154724184266137 1.992645885984184  1.214333536443324 4.15525077647102 1.841804684817894  1.215648774578793 4.226721531114793 1.992559456346174  1.215869957649623 4.229184558142552 1.838228048231241  1.217131437119152 4.298486611239741 1.992423238511618  1.217330715456042 4.302866374868396 1.834634834369039  1.218637717728207 4.370023045585503 1.992267374728951  1.218799968293487 4.37628842059495 1.831051697186407  1.220265339486076 4.441333282461499 1.99211745500661  1.220414736609785 4.449444833699118 1.827463228877426  1.222134316811354 4.512401450385869 1.992016578474667  1.222309672331711 4.522298482719108 1.823870405697739  1.095459423971532 4.077576706909086 1.741606692108069  1.097683343553928 4.085563903932416 1.880049153480983  1.100865832874226 4.161011397093247 1.877324167476184  1.098968741239701 4.154729150202603 1.733571549948081  1.103853710482932 4.236177531903644 1.874527877598405  1.102240537981059 4.23154277160551 1.725513242416928  1.106743628231227 4.311032887427295 1.87168893027033  1.105386465912023 4.308012900195662 1.717478379136741  1.109646513987253 4.38558824191121 1.868844747831768  1.108532923957221 4.384149605833631 1.709461152145227  1.112694937360587 4.459837391231861 1.866009305467441  1.111842091507944 4.459939328995273 1.70143458701567  1.116032806631636 4.533750858677093 1.863214278525444  1.115497322877625 4.535361748316125 1.693413654812163  0.9779989349551921 4.086104886769656 1.767400202084601  0.982111693034554 4.165285889028315 1.760476520615145  0.9859449949187039 4.244026182936483 1.753526454484692  0.9896198411035381 4.322400368658559 1.746602088888765  0.9932975301278879 4.40038122268272 1.739687073152242  0.9971289645492523 4.477936967334224 1.732803163012134  1.001288481717284 4.554947516120848 1.725984724756054  0.9658712361918885 4.010597883710795 1.368253138911261  0.971454468247442 4.091014616224884 1.338653688751243  0.9765292517746721 4.170867942284272 1.30926814655626  0.9813086817894634 4.250217897874334 1.280079200884731  0.9859884856057076 4.329079974528014 1.251030338845292  0.9908597782548126 4.407386822947345 1.222039327629558  0.9964019798392846 4.485060543558755 1.193191522726414  1.921604936904789 4.085491568670823 2.056120838725938  2.032295926750571 4.067900635350387 1.947909479579067  1.922422460706282 4.075074505841847 1.914253133410119  1.92781302095645 4.146648409165283 1.907347185214533  2.040251275288681 4.13937753503686 1.943201861235861  1.92665733862752 4.155984559466639 2.054648641430149  1.933076779091417 4.218025577960161 1.900501887932024  2.048018654111821 4.210697123636056 1.938557734286207  1.931590183637204 4.226279084937329 2.053209232753566  1.083097989823892 4.005681572037301 1.376651803380642  1.087745468393574 4.084476520612858 1.349731268413457  1.09195605244071 4.162833351733498 1.322979956486838  1.095908075833232 4.24079089560405 1.296383999549232  1.099758118303489 4.318320024965326 1.26989947553105  1.103792485082363 4.395360105877239 1.2434302015338  1.108432138245753 4.471886454791024 1.217023980921108  0.9746651463126744 3.962776971236702 1.254757152761613  1.098415270933372 3.955002875796195 1.249601010048918  1.102263264431764 4.031567078938543 1.213255401079037  0.978276400595441 4.041613274230814 1.217829467466684  1.105677880869492 4.107767815503414 1.177131443722436  0.9814659063488744 4.119955812759112 1.181167227479944  1.108809154277883 4.183594109550514 1.141206789355012  0.9843382626011896 4.197827554501398 1.144734766094599  1.111807373517273 4.258998377743292 1.105416168366031  0.9870329945240228 4.275196526335004 1.108458874554888  1.115005042338134 4.333939238685764 1.069713597538169  0.9899132688015603 4.352026490470746 1.072314957628546  1.118831475143995 4.408415818517195 1.034099721037092  0.9935016625760801 4.428287351813493 1.036354733088939  1.20342762163714 3.997273221866979 1.376257540130354  1.206958112809565 4.074402712069538 1.350356498524842  1.210132533295227 4.151190498409458 1.324590200425681  1.213076234520428 4.227631740105535 1.2989558359693  1.21592807424237 4.303714939122562 1.273409638173126  1.218943388023785 4.379409750325816 1.247851340189726  1.222480935374674 4.45472721159031 1.222296369749591  2.068190601969667 4.343989082769991 2.212586660045516  1.946614960638302 4.357838318907575 2.191618355435434  2.074225171429526 4.349304188387578 2.076672398564793  2.065817957318238 4.279665250206305 2.076919045984538  1.952023288847659 4.426358304429709 2.193334155136919  2.076090329464566 4.412297393117973 2.214535525227649  2.082665702582464 4.418815238364227 2.076384848983091  1.957487529224949 4.494744997652946 2.194998202044585  2.084077218779313 4.48045646395812 2.216430385775725  2.091212516109607 4.488187205378368 2.076021639794385  1.237514089748529 4.394168553049127 1.039267568676024  1.33495063354057 4.437272598360614 1.199105972808293  1.33264161917602 4.021767624515743 1.471164253526444  1.317794872491637 4.046189406219709 1.585223549685893  1.431237389777221 4.047928694309568 1.596383779076564  1.319906856272889 4.121706818666635 1.570831757273754  1.335353337788644 4.097428015229969 1.45052627841541  1.432885123249257 4.122441954067142 1.582234229066021  1.321831427891108 4.196944520073131 1.556468419322335  1.337833889812396 4.172859464312539 1.429949269252551  1.434379630516574 4.196733044450195 1.5681089762219  1.323628835851114 4.271895645313766 1.54214221215
[...]
<PointData  Vectors="f_16"> 
<DataArray  type="Float64"  Name="f_16"  NumberOfComponents="3" format="ascii">5.8886717084870616e-02 3.0622137070368811e-03 1.7987172814455499e-02  6.0087843265585479e-02 7.2509295545227235e-03 1.9551684886119233e-02  5.8319565708284692e-02 1.6210147529016897e-02 2.1858655988934984e-02  5.7694006745774580e-02 1.3402413654576806e-02 1.6840728433554105e-02  5.9308626764558746e-02 3.8078449778386030e-03 1.5266984032467373e-02  5.8335301378908154e-02 -5.9566847873226904e-04 1.4458554381641581e-02  5.8502621645600189e-02 1.1761047236400572e-03 1.1344759918355901e-02  5.7729224411674836e-02 -3.3512608736794370e-03 1.1141164198028443e-02  5.7051713902732608e-02 1.1138120030214407e-02 1.2279266191342836e-02  5.7144704059707507e-02 -5.5525033220949448e-03 7.7769011898830695e-03  5.7722001806620814e-02 -9.2112300577096545e-04 7.4401761196382331e-03  5.6434262707781124e-02 9.2553706357023837e-03 7.8319648767216973e-03  5.6628077464683048e-02 -7.3537300133782657e-03 4.2183432807351654e-03  5.7000994146409315e-02 -2.6699591429020430e-03 3.3773591515577437e-03  5.5853258586908434e-02 7.6546557181629577e-03 3.2868718254764292e-03  5.6222800175993612e-02 -8.8846328198070347e-03 3.7670712927984030e-04  5.6375220119780273e-02 -4.1856754442724841e-03 -9.4808059426036218e-04  5.5337821988214596e-02 6.2435620570555263e-03 -1.5056620890693412e-03  5.5970751348354456e-02 -1.0241047374946537e-02 -3.7910569176054496e-03  5.5873297907097254e-02 -5.5405302306312503e-03 -5.5706798083763184e-03  5.4920806269944361e-02 4.9744115993060238e-03 -6.6441280512040714e-03  5.2124856900254174e-02 7.1328129877594695e-02 3.3392708898059745e-02  5.0337865497729763e-02 6.9982365230035440e-02 3.2829178299759273e-02  5.1592491721612288e-02 6.1655216197834747e-02 3.1314296928929598e-02  5.1262352184706192e-02 6.1259593303627173e-02 2.6538249322078412e-02  5.0026461599071752e-02 6.9956444972550977e-02 2.8567898817206425e-02  5.1706299764990964e-02 7.1456381958602017e-02 2.9343264565597518e-02  5.0934752532244422e-02 6.0684582965161438e-02 2.2034729528713892e-02  4.9717125069508490e-02 6.9660784500746545e-02 2.4539437585116314e-02  5.1304509829106823e-02 7.1280432554083992e-02 2.5513063389326348e-02  5.0606289882875674e-02 5.9954764118625867e-02 1.7652850155767598e-02  4.9409167159436246e-02 6.9136422078155194e-02 2.0596535318673906e-02  5.0913592347515434e-02 7.0856526411646525e-02 2.1759084340671683e-02  5.0283886603069018e-02 5.9083859771650551e-02 1.3237697600535813e-02  4.9114164653379450e-02 6.8410272135058806e-02 1.6612137843610795e-02  5.0529312994876223e-02 7.0211782478509233e-02 1.7964204690866171e-02  4.9973234839662588e-02 5.8071329289482450e-02 8.6479895778679133e-03  4.8848865610516816e-02 6.7492085011613745e-02 1.2467237177156646e-02  5.0150481751160852e-02 6.9350712329622879e-02 1.4013716725441815e-02  4.9678949740968779e-02 5.6901320526310722e-02 3.7467517846589550e-03  4.8633212770389476e-02 6.6390663358052882e-02 8.0505325138124240e-03  4.9781870066908811e-02 6.8259088837636123e-02 9.7800610841350388e-03  5.3107170881169792e-02 6.2931147641189566e-02 3.1664964141745550e-02  5.2862927376345903e-02 5.2668875878209953e-02 2.9643072540412842e-02  5.2508609860428532e-02 5.1887533467767255e-02 2.4462672229077480e-02  5.2677563978191788e-02 6.2686068449853263e-02 2.6996161168096035e-02  5.2152286486223443e-02 5.1021840627987994e-02 1.9632867470863929e-02  5.2262177415916329e-02 6.2221351215201753e-02 2.2610675302125263e-02  5.1796576692723535e-02 5.0087205466399040e-02 1.4951250150307018e-02  5.1855366770733172e-02 6.1578997680119263e-02 1.8336105847167997e-02  5.1441700918784673e-02 4.9084151791608056e-02 1.0238830074716848e-02  5.1448509868714763e-02 6.0776269842046864e-02 1.4025014434078924e-02  5.1085372268276058e-02 4.7999121795529343e-02 5.3315327669359773e-03  5.1032853314871909e-02 5.9815130538096867e-02 9.5380251976441167e-03  5.0725594542391068e-02 4.6809491687285307e-02 6.7792765791837214e-05  5.0596252653856220e-02 5.8686879932216135e-02 4.7429842987963943e-03  5.6714753766712971e-02 1.4183648459957751e-02 2.1393539609688605e-02  5.6646055725796306e-02 2.5244633621610522e-02 2.4088074281838717e-02  5.5244810082250781e-02 2.4345337458404514e-02 2.4122470676724250e-02  5.4881987118810156e-02 2.1938942607264023e-02 1.8879329214525630e-02  5.6138790975305497e-02 2.2949188080067372e-02 1.8726282583707905e-02  5.6283599002690018e-02 1.1110070432431240e-02 1.6680694625570935e-02  5.4504082080002340e-02 1.9890903979725070e-02 1.4093421439362201e-02  5.5634087916166232e-02 2.0954031424793046e-02 1.3823926061227383e-02  5.5819658494981397e-02 8.6902734156843759e-03 1.2398828372632490e-02  5.4126661699936802e-02 1.8130123281059941e-02 9.4674076830656186e-03  5.5139888537411225e-02 1.9222469429880443e-02 9.0925872876161315e-03  5.5371291304751172e-02 6.6980195961171933e-03 8.2074530805068598e-03  5.3771096754255329e-02 1.6580596656433823e-02 4.7816325937411770e-03  5.4670803487991457e-02 1.7687421126149534e-02 4.3073611674165719e-03  5.4960780857241681e-02 5.0088699283508823e-03 3.9061207076836273e-03  5.3455031258155504e-02 1.5176380152344850e-02 -1.3771556798292098e-04  5.4240467086839030e-02 1.6288294200699275e-02 -7.0321917655822739e-04  5.4624256293200328e-02 3.5275905840439054e-03 -6.5417698807596839e-04  5.3198362257713343e-02 1.3869883610614343e-02 -5.4348767976842788e-03  5.3870419245179525e-02 1.4977524728434782e-02 -6.0845307175422031e-03  5.4405481349240052e-02 2.2006762582646171e-03 -5.5771824123407076e-03  5.4047096205387210e-02 4.3369256419235502e-02 2.7878580286362930e-02  5.4360536343396514e-02 5.4745499710482308e-02 3.0223478762923570e-02  5.3883198268779131e-02 5.4132604926803822e-02 2.5122242167340606e-02  5.3668697580153440e-02 4.2135347809041102e-02 2.2451672339018576e-02  5.3432539533061353e-02 5.3383300418123142e-02 2.0362157974331534e-02  5.3285229859823757e-02 4.0942777380641615e-02 1.7440909152826027e-02  5.2991822843790497e-02 5.2527248301868924e-02 1.5749753493752537e-02  5.2905597512892442e-02 3.9777327150719514e-02 1.2595715271175674e-02  5.2547403261249549e-02 5.1577779231065747e-02 1.1113625329040372e-02  5.2527496819834520e-02 3.8622443665034735e-02 7.7180099081786665e-03  5.2084108299548078e-02 5.0531623776402822e-02 6.2988514951373481e-03  5.2148451888550440e-02 3.7455299965739028e-02 2.6306323791516423e-03  5.1579253734221980e-02 4.9361260830120789e-02 1.1568136152210957e-03  5.1770786252722710e-02 3.6266033507598432e-02 -2.8373000439020288e-03  5.5310092594768281e-02 3.4365780010604592e-02 2.6009773499677022e-02  5.5465455277080154e-02 4.5388665918694698e-02 2.8315451558392313e-02  5.4955731101660070e-02 4.4300529602850504e-02 2.2888317801672737e-02  5.4871396754718624e-02 3.2545153310387341e-02 2.0551654452811926e-02  5.4465030270767566e-02 4.3204544932404547e-02 1.7867121751334123e-02  5.4435305741547417e-02 3.0900137461916478e-02 1.5499858301182882e-02  5.3989015118572500e-02 4.2099210635183959e-02 1.3018277658427104e-02  5.4007980860064968e-02 2.9390266869552428e-02 1.0622970294212841e-02  5.3513395309540364e-02 4.0982168986995381e-02 8.1467934857785158e-03  5.3592644416405322e-02 2.7979193015058211e-02 5.7103373488489326e-03  5.3023976085743739e-02 3.9840435213412927e-02 3.0836851702760186e-03  5.3192882364592936e-02 2.6633382287387392e-02 5.8297013503262715e-04  5.2504985833422009e-02 3.8655887495783053e-02 -2.3279094719427232e-03  5.2816461769705045e-02 2.5333860684789416e-02 -4.9074176488926643e-03  5.6672702062703084e-02 3.5717279221991992e-02 2.6240983945112945e-02  5.6105638784637223e-02 3.4029206539673458e-02 2.0683691449675058e-02  5.5564170672431849e-02 3.2470135664592829e-02 1.5556214039527234e-02  5.5039724105295749e-02 3.1027591145489555e-02 1.0607993835898019e-02  5.4525942248804478e-02 2.9668977684262937e-02 5.6311157788926074e-03  5.4018680233071853e-02 2.8366977780712000e-02 4.5188806857007573e-04  5.3510086314362097e-02 2.7108634435571509e-02 -5.0715009929876926e-03  5.7377938570326678e-02 3.9895267649992395e-03 1.8306335853584529e-02  5.6976786445544332e-02 2.1524277090110961e-04 1.4807585838554101e-02  5.6547371393329743e-02 -2.6539736560895152e-03 1.1504494403463529e-02  5.6127931281453623e-02 -4.9270855268098894e-03 8.1892178515873704e-03  5.5767473090365942e-02 -6.7838889821991381e-03 4.7005435163244968e-03  5.5511317428984588e-02 -8.3529277949841631e-03 9.2892660999502742e-04  5.5424256425796403e-02 -9.7264428715542611e-03 -3.1758350463914615e-03  4.5297801147271666e-02 6.1768669384064764e-02 3.0883768272265636e-02  4.3669626723778929e-02 5.3342682450003877e-02 3.0145257797821613e-02  4.5032296145467332e-02 5.0446269545328555e-02 2.9025993403598200e-02  4.4940554821071926e-02 4.8921235047495744e-02 2.3635926186235202e-02  4.3529723868700555e-02 5.2036635329758475e-02 2.4742043434820900e-02  4.5173770999284810e-02 6.0982169288901621e-02 2.5823301249205583e-02  4.4775145294380168e-02 4.7458250986900291e-02 1.8589550372081893e-02  4.3323971333683237e-02 5.0789522984687835e-02 1.9696820473565611e-02  4.4973778169377719e-02 6.0083256685916783e-02 2.1087819025078870e-02  5.5799124047409360e-02 4.9249370801546953e-03 1.8779708515798594e-02  5.5541305895017032e-02 1.2852552986482631e-03 1.5217935234914853e-02  5.5253271778943965e-02 -1.5010744943042781e-03 1.1879570539412590e-02  5.4967266124295214e-02 -3.7046081874942695e-03 8.5206872136869647e-03  5.4733629943203972e-02 -5.4951699091349993e-03 4.9742878805365369e-03  5.4584989308965708e-02 -6.9959820677209083e-03 1.1263150069649203e-03  5.4580674412130305e-02 -8.2907939410743099e-03 -3.0895898574881159e-03  5.7841682599628838e-02 -4.4248512274029719e-03 1.5311046323687566e-02  5.6199603135911491e-02 -4.6966292504143610e-03 1.5429099256134511e-02  5.6028541894169871e-02 -8.5623304483099464e-03 1.3393645252787743e-02  5.7549877530650176e-02 -8.2679905099643375e-03 1.3209426894574336e-02  5.5816613543204795e-02 -1.1384426025677748e-02 1.1345558765947525e-02  5.7175794611470127e-02 -1.1105144880691030e-02 1.1087502455480179e-02  5.5622691745391049e-02 -1.3513232837084390e-02 9.1064584697245071e-03  5.6829428592512436e-02 -1.3255374522567125e-02 8.7824690852947931e-03  5.5492324356551027e-02 -1.5159865399938736e-02 6.5809860782585806e-03  5.6542476505218431e-02 -1.4934534612118792e-02 6.1965870396230903e-03  5.5513059190227448e-02 -1.6498884263130207e-02 3.6926522506154323e-03  5.6451297831242517e-02 -1.6334449934391482e-02 3.2620135823606925e-03  5.5710582386824137e-02 -1.7606297368092862e-02 3.8247634277843750e-04  5.6548800427571488e-02 -1.7530115917295811e-02 -8.1287479277865045e-05  5.4229586852624780e-02 5.0471275645360232e-03 1.9145288817598975e-02  5.4126371548185455e-02 1.4729492049770541e-03 1.5585106746944150e-02  5.3957293239330281e-02 -1.3081017271816511e-03 1.2278326916590495e-02  5.3787494828878214e-02 -3.4974593662452200e-03 8.9486175593799042e-03  5.3654788624169919e-02 -5.2686846928190981e-03 5.4251224405980417e-03  5.3591228217203711e-02 -6.7420618188470758e-03 1.5875227252064115e-03  5.3636372875208935e-02 -7.9850678478382599e-03 -2.6558627170971188e-03  4.3060443393254433e-02 7.0257884093430575e-02 1.7165425127291883e-02  4.4569006505994886e-02 6.8436556312491403e-02 1.5869783604641231e-02  4.2830298929222244e-02 6.0407211912753257e-02 1.3368316603298635e-02  4.3132528450692452e-02 6.1368517430788874e-02 1.7963370763306296e-02  4.4301882349063709e-02 6.7378932572095318e-02 1.1548376576674457e-02  4.2714902843193549e-02 6.9246600953590323e-02 1.2910211108479511e-02  4.2543620623035606e-02 5.9348981883000008e-02 8.6104975537159758e-03  4.4061440598601558e-02 6.6156547886876499e-02 7.0272471396308671e-03  4.2380751822187410e-02 6.8060659726575337e-02 8.4461081485209324e-03  4.2285374045302214e-02 5.8176226087612408e-02 3.5513792928700584e-03  5.4636676642258492e-02 -1.7479075876483566e-02 6.7108501799038542e-04  5.2749399636213078e-02 -9.3676034652145062e-03 -2.0668779814781457e-03  5.2399261015408038e-02 1.2693842034433925e-02 2.1453764758142310e-02  5.2526101422391190e-02 2.2194386088691165e-02 2.3703561559839787e-02  5.1090747922268066e-02 2.3165295330070661e-02 2.3825710156141572e-02  5.2367729722092311e-02 1.9557978302057851e-02 1.8694371277982864e-02  5.2330232438156682e-02 9.4538779634552560e-03 1.7101869351475400e-02  5.1010846800076039e-02 2.0569874341629938e-02 1.8817035255036231e-02  5.2180986680167490e-02 1.7343566709601268e-02 1.4082481623554599e-02  5.2205263328648041e-02 6.8495660418595311e-03 1.3077627736996351e-02  5.0888652254898553e-02 1.8394148591261313e-02 1.4186640156603508e-02  5.1990568130566329e-02 1.5453447573559547e-02 9.6035598305446133e-03  5.2081232456009055e-02 4.7167362299447187e-03 9.1260605101987774e-03  5.0757970745989367e-02 1.6527415741276082e-02 9.6700054499239407e-03  5.1817036776148885e-02 1.3804591583488781e-02 5.0433908770420371e-03  5.1981971677431058e-02 2.9293190616181751e-03 5.0427162602172228e-03  5.0641434442720720e-02 1.4889848747433206e-02 5.0600531977902869e-03  5.1678439252802230e-02 1.2327184077719155e-02 2.2788405517880331e-04  5.1933063813280729e-02 1.3918732628413258e-03 6.7132218775606668e-04  5.0554591009542266e-02 1.3418484772949976e-02 1.8660526145234218e-04  5.1589980442426499e-02 1.0983663620014817e-02 -4.9947160927938383e-03  5.1956961915593507e-02 4.9450218844412802e-05 -4.1189228902251728e-03  5.0505370606299657e-02 1.2068599738671457e-02 -5.0963250858498729e-03  5.8193598077422373e-02 6.7583541990799897e-02 3.2324473078902620e-02  5.7262189652588391e-02 6.9323947605882785e-02 3.2733899692896667e-02  5.7154034707315407e-02 6.2276264693445250e-02 3.1428465809046596e-02  5.6434804698686739e-02 6.2064694551259313e-02 2.6819682488781985e-02  5.6515132069820596e-02 6.9441127730183030e-02 2.8790506673575973e-02  5.7421905652334397e-02 6.7569191782755375e-02 2.8215795515980188e-02  5.5800797494161447e-02 6.1609222767307154e-02 2.2451243436905056e-02  5.5866330247327102e-02 6.9241069939991365e-02 2.5001955387396291e-02  5.6766836137099146e-02 6.7251920356447684e-02 2.4259788574979648e-02  5.5199516768554308e-02 6.0961822007297460e-02 1.8179105782983481e-02  5.5252182612558980e-02 6.8789182364116200e-02 2.1263401452774919e-02  5.6152703831516645e-02 6.6700114304708416e-02 2.0348853382196410e-02  5.4579317448267023e-02 6.0155252651989032e-02 1.3877615689673837e-02  5.4610231743506106e-02 6.8126820764845122e-02 1.7481453324366288e-02  5.5508453301479146e-02 6.5960175435293963e-02 1.6393639068720076e-02  5.3886817384580066e-02 5.9207681974199185e-02 9.4403533086632740e-03  5.3875057625128120e-02 6.7278182529183606e-02 1.3579690929609884e-02  5.4763122452409739e-02 6.5065586169107847e-02 1.2321760106142879e-02  5.3062608030768711e-02 5.8122318038016089e-02 4.7813074231107125e-03  5.2975343284570500e-02 6.6279431551769380e-02 9.4992918090354948e-03  5.3844578294038235e-02 6.4045853133500238e-02 8.0902236387164241e-03  4.7998237174521542e-02 4.1937910698720680e-02 2.7376853826550702e-02  4.6474549568280996e-02 4.1121588146170319e-02 2.7095578979505111e-02  4.8131451640480355e-02 3.1749595258567964e-02 2.5378710661206443e-02  4.7927411038307360e-02 4.0281712444338875e-02 2.1962793377206136e-02  4.5568789162631830e-02 7.0967392435867638e-02 3.2929866971885893e-02  4.3830146933348239e-02 6.3676837897991362e-02 3.2265904452211856e-02  4.5395285363993135e-02 7.0665713452095408e-02 2.8448853747491658e-02  4.3673209992453735e-02 6.3012691565866877e-02 2.7230180580030260e-02  4.5141688123548906e-02 7.0102370790748381e-02 2.4210846767560398e-02  4.3424303487892481e-02 6.2239566186059650e-02 2.2532222713188010e-02  4.4855633718633797e-02 6.9348302212251925e-02 2.0058214761830978e-02  4.4742893167017558e-02 5.9086478282698897e-02 1.6469423293858518e-02  4.4513442698462503e-02 5.7995579559296670e-02 1.1811813015836130e-02  4.4311520335026978e-02 5.6810455324504391e-02 6.9861114638783868e-03  4.4144838982661874e-02 5.5564866688511939e-02 1.8934956505031232e-03  5.3930611475379850e-02 3.4078703888040303e-02 2.6048479494626638e-02  5.3831770571919908e-02 2.4100413991266386e-02 2.3971177586477210e-02  5.3572012877898922e-02 2.1619229241238269e-02 1.8822852864208553e-02  5.3610261620568256e-02 3.2173784544842016e-02 2.0628325938073660e-02  5.3295555535769916e-02 1.9542338212835332e-02 1.4099535386825455e-02  5.3281993462549228e-02 3.0463198403246138e-02 1.5621347482227505e-02  5.3017869533509468e-02 1.7756428463848291e-02 9.5177861437236080e-03  5.2952285313792195e-02 2.8904072939334426e-02 1.0785250251010042e-02  5.2758112729323799e-02 1.6186160346311759e-02 4.8624727416903225e-03  5.2631492806006167e-02 2.7457074775164653e-02 5.9097146210295411e-03  5.2534361654778615e-02 1.4766125607142768e-02 -4.1578300508266445e-05  5.2328175722894138e-02 2.6083097779740997e-02 8.1407016993953712e-04  5.2372832008941578e-02 1.3451641207541928e-02 -5.3528018661650519e-03  5.2047615350984656e-02 2.4751183056069843e-02 -4.6575123004449874e-03  4.6642986382019275e-02 5.1652231967898553e-02 2.8958152236648393e-02  4.6567817925327964e-02 5.0408142422131257e-02 2.3624013520228065e-02  4.6432395702736967e-02 4.9163423272387180e-02 1.8648395047871968e-02  5.8911782674556885e-02 7.1506025726115738e-02 3.3129444904199890e-02  5.8164495537510630e-02 7.4066760438863330e-02 3.3775447575295464e-02  5.8180737166955522e-02 7.1617401826928689e-02 2.9527210132323161e-02  5.7388299547901644e-02 7.4331970857097210e-02 3.0495349267547670e-02  5.7586055256669780e-02 7.1405672882787222e-02 2.6010386607795342e-02  5.6737259600459139e-02 7.4239194150930957e-02 2.7289156871385285e-02  5.7037287247785097e-02 7.0943735365303240e-02 2.2498653428618592e-02  5.6127444608921516e-02 7.3868684724461398e-02 2.4082888200496391e-02  5.6451934455067243e-02 7.0285343490307836e-02 1.8928755900897477e-02  5.5482400896756955e-02 7.3272523658610630e-02 2.0821402931948008e-02  5.5752372227569527e-02 6.9471267193165084e-02 1.5251212466517184e-02  5.4726366216383951e-02 7.2485268323927501e-02 1.7460302619725490e-02  5.4863694832446762e-02 6.8567943853100943e-02 1.1437254433811312e-02  5.3780429199018147e-02 7.1543038141833201e-02 1.3961689891056211e-02  5.2522949094771475e-02 3.2036612030234668e-02 2.5649902936869917e-02  5.1098774558251112e-02 3.3338972709019553e-02 2.5981471074686489e-02  5.0963999299393895e-02 3.1414039555228326e-02 2.0615155792550854e-02  5.2308703940930103e-02 2.9981498850763955e-02 2.0295702804916025e-02  5.0789481195681212e-02 2.9702762470673275e-02 1.5669368929178515e-02  5.2070532240810513e-02 2.8154246031439460e-02 1.5350598029735275e-02  5.0604452999746967e-02 2.8167306734065974e-02 1.0875584040660226e-02  5.1826549324311959e-02 2.6507712707279665e-02 1.0565920958838732e-02  5.0426142065176191e-02 2.6756848142676721e-02 6.0239430397664422e-03  5.1591925020204057e-02 2.4997878533702587e-02 5.7308608048831462e-03  5.0267454175408600e-02 2.5429838490762066e-02 9.3530045771895803e-04  5.1379325572804647e-02 2.3581263949867110e-02 6.6419034286000975e-04  5.0139098424844694e-02 2.4149186453053362e-02 -4.5545164615791592e-03  5.1203598720478333e-02 2.2228088250367716e-02 -4.7894795592428371e-03  6.1580749700007396e-02 2.3804678810852457e-02 2.4165646778532671e-02  6.0460147152745974e-02 2.4397325171115980e-02 2.4032155392526344e-02  6.1113871291099381e-02 1.4896833408576223e-02 2.1840312525652654e-02  6.0119368132886826e-02 1.1877647336659783e-02 1.6559728433210939e-02  5.9525228468229656e-02 2.1956433801966196e-02 1.8225167831671892e-02  6.0524112016272745e-02 2.1215442012420468e-02 1.8097181785668257e-02  5.9135282010027254e-02 9.4858635761661172e-03 1.1748507015090674e-02  5.8635576095523473e-02 1.9868939183588650e-02 1.2919643358914334e-02  5.9510814558346892e-02 1.9024671961010237e-02 1.2585015884705945e-02  5.8172432264556546e-02 7.5142356624023172e-03 7.0585288824383322e-03  5.7771815868688382e-02 1.8069579822379927e-02 7.8055138503723680e-03  5.8517017690989992e-02 1.7133821785523359e-02 7.2839677953506722e-03  5.7252039074716647e-02 5.8263982665212235e-03 2.2743143213664733e-03  5.69350405239