<?xml version="1.0"?>
<VTKFile type="UnstructuredGrid"  version="0.1"  >
<UnstructuredGrid>
<Piece  NumberOfPoints="1006" NumberOfCells="4264">
<Points>
<DataArray  type="Float64"  NumberOfComponents="3"  format="ascii">6.184910132361958 2.78488344507499 0.8838095097948688  6.164392362223007 2.922550316075103 0.8766550127968332  6.286937458583039 2.859884846904098 0.8773129689654955  6.284906730356818 2.85570544921371 0.8086238319674433  6.163296499035368 2.922261128219102 0.8072200713719937  6.184641795285208 2.778316424033469 0.8162029585594126  6.282840632142329 2.85140721800177 0.7400783988047731  6.162163775264244 2.921860292949516 0.7379263744575028  6.184360152784739 2.771651941677639 0.7487377775511295  6.280762239183895 2.847010093528368 0.6716616948676541  6.161014070104855 2.92134929360025 0.6687468944010105  6.184076549387163 2.764904493240222 0.6814111170851653  6.27869721710415 2.842553092082316 0.6033569255487439  6.159878532489712 2.920768392395819 0.5996833105486674  6.183791145481136 2.758118462065066 0.6142004170676693  6.276650044966149 2.838117797146153 0.5351466076937459  6.158761453821255 2.920201132749966 0.5307136220273811  6.183508977681953 2.7513591939958 0.5470909801992284  6.274638769463772 2.833770575759379 0.4670342547659785  6.157681317132066 2.919719119725295 0.46182769172886  6.18325137753023 2.744677025376244 0.4800975208679201  6.406692251307141 3.035970257345332 0.8753398260070576  6.301320668870709 2.977133513848819 0.8731694484470893  6.303878149434143 3.0847921388085 0.8874413259134392  6.301621594461698 3.09354664352631 0.8172734668644759  6.298796838047096 2.980919711725473 0.8032364965874812  6.400343017113677 3.044044433889778 0.8057907269344509  6.299303309753518 3.10215080890297 0.7471924406789582  6.296228618167379 2.984564860273435 0.7334194034228465  6.393961640599115 3.051962137133233 0.7363195634653199  6.296964838235135 3.110627730279011 0.6771980607748833  6.293643404877982 2.988096523118263 0.6637050148009986  6.387561663737602 3.05976385524048 0.6669308006102734  6.294651805252496 3.119026394953655 0.6072896027010359  6.291081431310021 2.991557369991565 0.5940890349396114  6.381183302329513 3.067494607264015 0.5976226474734203  6.292390936180598 3.127404408755939 0.5374619767096845  6.288547601464575 2.995029579656288 0.5245633994107524  6.374842876496089 3.075222588839635 0.5283878438507125  6.290174041731952 3.135875998950351 0.4677102720136472  6.286052811710815 2.998592867828775 0.4551281835912001  6.368550221790547 3.08304184962903 0.4592430134828564  6.240671788210547 3.514846693786072 1.065953019613514  6.367206236022347 3.569187191204862 1.097619927284759  6.360750213363687 3.471283438508877 1.02799167223292  6.358121032525562 3.510454229823186 0.9683888406255  6.363794190776734 3.614387366168157 1.042913105910904  6.237596745453668 3.557383268546298 1.007929097675646  6.360380994584374 3.65954135912988 0.9882204258125437  6.234483233203054 3.599814548774606 0.9499059831585698  6.355452076597214 3.549523748218779 0.9087885134398822  6.356989867654926 3.704659061377571 0.933559990155602  6.231393865364121 3.642180539428586 0.8919294892696314  6.352800694381867 3.588536766255745 0.8492122470476197  6.353627077091907 3.749725744332925 0.8788954437362944  6.228360254123748 3.684497735448031 0.8339955750271026  6.35018620025489 3.627507031944072 0.7896527189019833  6.350321586183621 3.794755797221705 0.8242174343194764  6.22539688160957 3.726772687999354 0.7760814383097042  6.347623738540637 3.666445997554543 0.7301033595814008  6.222531446128237 3.769023410742726 0.7181743164872251  6.347069782234482 3.839756586261773 0.7695236619051236  6.345135650757308 3.705364925613309 0.6705699570266711  6.502293187924642 3.753898458969111 1.274708483408688  6.381093808491823 3.776494962585518 1.318289115370202  6.482066244676813 3.822194959673553 1.369664830957401  6.476887051186313 3.878500278746023 1.330683067717335  6.377233932954241 3.832656840827425 1.277690674943097  6.499198457521347 3.807617834898937 1.231079983275  6.496097784158616 3.861393463782324 1.18754896042804  6.373374265841236 3.888839074325475 1.237246031930662  6.47175304608492 3.934867727943792 1.291868914643488  6.492977102387642 3.915141406579928 1.144025704626514  6.369525827340668 3.944980303322396 1.196860899573215  6.466615063703503 3.991198198445595 1.253096144483409  6.489876787156695 3.968842375809202 1.100481678989173  6.36569937289196 4.001045235570738 1.15646208010457  6.461494998480847 4.047460856620572 1.214315877764394  6.486831807787022 4.022489090909626 1.056887340707881  6.361923789088991 4.057024833150214 1.116020651997799  6.456416124015977 4.103644852605933 1.175487275491473  6.358254966665366 4.112921579471696 1.075503479007169  6.483877601796976 4.076075776380956 1.013222105786281  6.451373734064493 4.159732797502929 1.136556718901666  6.242757556244779 3.260290310243783 0.9293420187747047  6.334380454324267 3.360841153627052 0.9635129727032001  6.346334488178935 3.251855804065874 0.9199045585692479  6.343444754964082 3.275701142805574 0.8524776345536601  6.331817102737817 3.391745129710899 0.8987587822553709  6.239084774267024 3.284305018907812 0.8616053883576492  6.340497034408915 3.299385333956107 0.7850895382013148  6.329202490564928 3.422507278291601 0.8340126923467815  6.235363138302676 3.308146159732643 0.793905764802978  6.337544285068093 3.322971875854672 0.7177507793640299  6.326595203202722 3.453191205490937 0.7693057959365276  6.231636031600813 3.331881041003047 0.7262622940932675  6.334625075354515 3.346501660068432 0.65046962864313  6.324026290491427 3.483826544846973 0.7046455685023896  6.227942861845157 3.355556471892539 0.6586861896027902  6.331771119987765 3.370012524934199 0.5832513815613367  6.321515716180556 3.514440288662827 0.6400270904554859  6.224318468134121 3.379211175448495 0.5911862519373321  6.328986186293514 3.393552375900829 0.5160915155176332  6.319082050202293 3.545045826570405 0.5754395656437516  6.22078812169615 3.40288958286664 0.5237656510982818  6.28470213864089 3.436334919408087 1.006592759924321  6.281048767174921 3.474407674430724 0.9455414995531282  6.277367805460514 3.512357696869025 0.8844884818671711  6.273703148976494 3.550244308127142 0.8234741277392676  6.270087318732509 3.588090533560675 0.7625060788267992  6.26653295088381 3.62590615644864 0.701557054994005  6.263036001736507 3.663705508048966 0.6406074815799887  6.192334572631471 3.378691481515469 0.9812067078071828  6.188951191420513 3.411466019472396 0.9166143703187037  6.185513067051565 3.444076637980384 0.852022671594056  6.182081660843492 3.476599758554886 0.7874881903624342  6.178698291951672 3.509073049111548 0.7230210618411224  6.17538679376417 3.541523170732306 0.6586210146937371  6.172145129932406 3.573972506998519 0.5942716538551934  6.420664245809262 3.718716147456331 1.237639644387312  6.41700384574444 3.770839927933945 1.191164242968572  6.41334533933553 3.8229815993276 1.14476975695641  6.409691342707357 3.875090274558383 1.098401757224502  6.406064567505481 3.927144121554914 1.052015800871028  6.402499483088348 3.979143691893985 1.005593718639002  6.399003755596137 4.031094141814944 0.9591127263151262  6.104774102796454 3.230949930448468 0.9214649012425968  6.102021535964921 3.253028147076749 0.8527234396481849  6.09920217632044 3.274925890696644 0.7840163381250111  6.096370011716549 3.296707599828545 0.7153882472198305  6.093572581885664 3.318424486717782 0.646843177802168  6.088222910157117 3.361860019426875 0.5099885223394536  6.356462718759736 4.035304349075137 1.82067484517851  6.471637652441167 4.037108985945244 1.763805296911034  6.369050829662939 3.983547749721107 1.677050935669  6.357198508587206 4.044110464989201 1.65011387139156  6.462055049867159 4.098503749879158 1.738566838810449  6.34111976061353 4.096575465853004 1.799477501464601  6.326096247677894 4.157805967472506 1.778510859387479  6.452645103169371 4.159737848673586 1.71364408452616  6.345588993843263 4.104582535242765 1.623465869941414  6.311252306623349 4.218884402439375 1.757679073448985  6.44333982031392 4.220805552213272 1.688886523266082  6.334095872780841 4.164949803283259 1.596924989013301  6.296482507021746 4.279805534663522 1.736910419914982  6.43409383846797 4.281693806201044 1.664204582764516  6.322645219237498 4.225175027386309 1.570408699664451  6.424859568025592 4.342394622547496 1.639519517314485  6.281681618629505 4.340506845654118 1.716129086989315  6.311182509265048 4.28522092087708 1.543864277309505  6.266678589876293 4.40096551503181 1.695232181977155  6.415535779315552 4.402769284548292 1.614750907722355  6.299616256128354 4.345053881279282 1.517207838059711  6.22954816081508 4.019091153851382 1.89395089831353  6.256543886335306 3.978348683731157 1.741453082827983  6.239798705222205 4.039500902121226 1.719803546570341  6.208839443966969 4.079718641641276 1.877446690609185  6.188638579232532 4.140311734140022 1.861089734718401  6.223459608143853 4.100545200980853 1.69837891022618  6.168660249123916 4.200844563974486 1.844788962107896  6.207296435476046 4.161499640341808 1.67703847429066  6.148735768718803 4.261253012680008 1.82850471377035  6.19117822498084 4.222320792639147 1.655711347011134  6.128724927990167 4.321473992323151 1.812208343423722  6.175004655745601 4.282969416940674 1.634358967937418  6.108464564288739 4.381434978799618 1.795861124731135  6.158658165200719 4.343397937948963 1.612926626442649  6.509730653940379 3.989551468714543 1.648029937097091  6.502152335209696 4.049847238453049 1.619027889830988  6.494647283073411 4.110042093330772 1.590338426864516  6.487192775450334 4.170116114886303 1.561805022484494  6.479763613779903 4.230045282869062 1.533323765325948  6.472340350448581 4.289798290726162 1.504815772654476  6.464891524561206 4.349331230631266 1.476197360372843  6.480381549285164 2.848397292331981 0.8629518013717293  6.38260560427663 2.79576135545822 0.8810238831015735  6.3977558470594 2.921456471765404 0.8664547730647357  6.39151414355
[...]
<PointData  Vectors="f_16"> 
<DataArray  type="Float64"  Name="f_16"  NumberOfComponents="3" format="ascii">-6.0045032801181312e-04 -2.9489842106363375e-02 3.4680364550324074e-03  -3.2672578142685675e-04 -2.7182255181973279e-02 1.1098534402114254e-02  -2.0253118103244145e-03 -2.8132801150601128e-02 7.9269449801314083e-03  -1.5073086388435468e-03 -2.5430135865526771e-02 7.7987162696056518e-03  1.0070137840360676e-04 -2.4660500710718947e-02 1.1153484088029865e-02  -6.9422121910080894e-05 -2.6751886259443830e-02 3.2289985894210110e-03  -1.1642139415130512e-03 -2.2745361504609030e-02 7.6080966394079337e-03  5.5190362735664771e-04 -2.1790853055234326e-02 1.1148849990399456e-02  3.1746836937906304e-04 -2.4151021923177175e-02 2.9396330758071484e-03  -8.6694716172657079e-04 -1.9838238558520460e-02 7.3643229803509761e-03  8.7751841191392916e-04 -1.8756296703911442e-02 1.1081280529656736e-02  6.8929239060933057e-04 -2.1277720295111002e-02 2.6111073231994413e-03  -6.6980676046441204e-04 -1.6743533332008662e-02 7.0593785294938809e-03  1.1107474911254405e-03 -1.5518909731314347e-02 1.0938695007954184e-02  9.9015363513248731e-04 -1.8219478525615933e-02 2.2247906466937107e-03  -5.4584400084409235e-04 -1.3448301363690050e-02 6.6815149521016158e-03  1.2874549553005010e-03 -1.2067810620167187e-02 1.0727078108387626e-02  1.2485384873512299e-03 -1.4973883408286641e-02 1.7786001292266545e-03  -4.4597984064510891e-04 -9.9588312454489663e-03 6.2172328112265005e-03  1.4769894680255594e-03 -8.3859281890388462e-03 1.0442809001187277e-02  1.4952909035267331e-03 -1.1528868628091125e-02 1.2601097567552576e-03  -3.8477646910151176e-03 -2.4923693010332381e-02 1.8153542613158380e-02  -2.2582415800094361e-03 -2.6027469737001842e-02 1.4652936128492517e-02  -2.4341247461578319e-03 -2.4381800688604106e-02 2.0942611571790355e-02  -1.9439343441716580e-03 -2.3091868219493120e-02 2.1440760667436450e-02  -1.8081382196531391e-03 -2.3799200007471398e-02 1.4863642925893362e-02  -3.1541563879841925e-03 -2.3213801662367209e-02 1.8631287008109801e-02  -1.6783081082400264e-03 -2.0241480766895980e-02 2.1922965718538662e-02  -1.4384730372627122e-03 -2.0879447977738167e-02 1.5068438468103707e-02  -2.8803089286341594e-03 -2.0343743527377882e-02 1.9056012523077894e-02  -1.5946092796808448e-03 -1.7268698323319714e-02 2.2282385254931925e-02  -1.2292938350072825e-03 -1.7877303133691187e-02 1.5203075877870896e-02  -2.7592458867422430e-03 -1.7374658274513642e-02 1.9385963164720306e-02  -1.5732741241452762e-03 -1.4172993844777236e-02 2.2508597850774647e-02  -1.1282707733901161e-03 -1.4683663440885678e-02 1.5251427713205177e-02  -2.7207078541017066e-03 -1.4281944085149769e-02 1.9617073708958391e-02  -1.5690154470096439e-03 -1.0863546002757806e-02 2.2594488233006374e-02  -1.0981156529292055e-03 -1.1277667469325691e-02 1.5212131938687702e-02  -2.7325297182347824e-03 -1.0995607171125688e-02 1.9742058441841112e-02  -1.5442541268522012e-03 -7.2602560578573453e-03 2.2546802813011056e-02  -1.0722390822847795e-03 -7.6251913877400631e-03 1.5072891833845734e-02  -2.7842843439120218e-03 -7.4512326652113785e-03 1.9736545033425555e-02  -2.9203452457924437e-03 -1.0335794391255594e-02 4.3699780491539657e-02  -4.8041583845287927e-03 -6.7456558331673430e-03 4.5070657629668248e-02  -4.2899718126690450e-03 -1.3200498697031569e-02 4.1911640422823151e-02  -4.5833352997381909e-03 -1.6324184480351625e-02 4.2983014082919997e-02  -4.9698978958777661e-03 -1.0483162810595645e-02 4.5611282455045109e-02  -3.1436446941731882e-03 -1.4032500698739342e-02 4.4570203794765402e-02  -5.2190232619015045e-03 -1.3349990031944252e-02 4.5877536207093429e-02  -3.2554198803451985e-03 -1.6457331104129266e-02 4.5272188472046448e-02  -4.5911798675676218e-03 -1.7955874474875334e-02 4.3936893712816574e-02  -5.2793550108990216e-03 -1.5182059298487370e-02 4.5832261604302239e-02  -3.1589441411876279e-03 -1.7496203347499933e-02 4.5708411985883074e-02  -4.2843930615553685e-03 -1.8071358632516198e-02 4.4726215401175613e-02  -5.1187348723219150e-03 -1.5991929250968956e-02 4.5368207122721958e-02  -3.0076767589812961e-03 -1.7521141139387866e-02 4.5697143464898483e-02  -4.2358018560623659e-03 -1.7430936861008724e-02 4.5048050639783697e-02  -5.0270042151616652e-03 -1.6338731159799499e-02 4.4284545589262300e-02  -2.9113384376438477e-03 -1.7219137526999568e-02 4.5025114368507306e-02  -4.2828369932281923e-03 -1.6540893025144207e-02 4.4775050228366434e-02  -2.8600040047027462e-03 -1.6515704937422139e-02 4.3736165107225562e-02  -5.0773137210650592e-03 -1.6383373055204851e-02 4.2608379032235820e-02  -4.3743344257387582e-03 -1.5241810361782218e-02 4.4024065290450283e-02  -7.1528049307012700e-03 1.3547416128639999e-02 4.6640949171053672e-02  -5.9066158859464746e-03 1.8232190677177809e-02 4.6975328507229464e-02  -7.2153982215436745e-03 2.4622488652807598e-02 4.6014233496572021e-02  -7.2513133953080108e-03 1.9751426511437901e-02 4.3144756891801493e-02  -5.9090954174068613e-03 1.3318127261724872e-02 4.4584017114929597e-02  -7.2505752276078037e-03 8.7962665751300760e-03 4.4915200880630550e-02  -7.3464324856724163e-03 4.8272934513504569e-03 4.2990041979541191e-02  -5.8931298250321828e-03 9.2707045743948314e-03 4.2102606465090182e-02  -7.2901110739433082e-03 1.5563097851951403e-02 4.0239736131004102e-02  -7.4536585527437589e-03 1.4115775461340911e-03 4.0756190254107254e-02  -5.9018677948645881e-03 5.7905573780930595e-03 3.9347267446992934e-02  -7.3426971065011712e-03 1.1886360272157285e-02 3.7144416703678934e-02  -7.6262655743546673e-03 -1.6439368855675446e-03 3.8137634371789061e-02  -5.9258800316689944e-03 2.6787992319201770e-03 3.6225596831664750e-02  -7.4030961839805743e-03 8.5521452008750949e-03 3.3739826461856449e-02  -7.7665237208246890e-03 -4.3766024118825925e-03 3.5075769199027815e-02  -5.9586028114440512e-03 -2.0160758673734130e-04 3.2663587392963968e-02  -7.4789880084188331e-03 5.4309585802053157e-03 2.9934516426360677e-02  -5.9928919654048344e-03 -2.9024872453073079e-03 2.8541201777587247e-02  -7.8484405132100837e-03 -6.9001990035725920e-03 3.1441885817862350e-02  -7.5995237644690536e-03 2.4125472796696656e-03 2.5652084063500918e-02  -2.1118954287274133e-03 -2.1447591826936528e-02 3.1407724743401144e-02  -3.6507441928457125e-03 -1.8478094454304875e-02 3.6862366492671363e-02  -3.4129523798864577e-03 -2.1383993410164132e-02 3.0874050514732822e-02  -3.2277941902679854e-03 -2.1798340411454353e-02 3.2076087548305078e-02  -3.7333003472134383e-03 -2.0268358695584437e-02 3.8138284386232832e-02  -1.9571238239877225e-03 -2.2029459029898536e-02 3.2607333059374369e-02  -2.6351299305340074e-03 -1.9894575212896493e-02 3.3241721271695251e-02  -3.2588419180578634e-03 -1.9912383193980848e-02 3.9405147279938491e-02  -1.4281848179450692e-03 -2.0247330537232690e-02 3.3833721206882494e-02  -2.7694117013649534e-03 -1.7385166891661627e-02 3.4209564036209811e-02  -3.0120858368298644e-03 -1.8244407451409480e-02 4.0414209070099960e-02  -1.3377462468257420e-03 -1.7716050615826127e-02 3.4805904759136107e-02  -2.8153785342446285e-03 -1.4840734863916655e-02 3.4830522384964639e-02  -3.1537424547049926e-03 -1.6356026188894833e-02 4.1002984487810902e-02  -1.3307497637313158e-03 -1.5181121076540561e-02 3.5429515555536688e-02  -2.8883037959135153e-03 -1.2100154805145842e-02 3.5211440736623252e-02  -3.2378335867689402e-03 -1.4296323579656959e-02 4.1185977428923451e-02  -1.3313722831368765e-03 -1.2459385958270784e-02 3.5784340692390219e-02  -2.9420173902991540e-03 -8.9940275178489321e-03 3.5445754546614597e-02  -3.3041441155895221e-03 -1.1820465408426389e-02 4.1144374976401166e-02  -1.3662913104017841e-03 -9.3206493277306346e-03 3.5943557628818054e-02  -3.2489568392669644e-03 -1.5435926005202081e-02 4.0609766675201629e-02  -3.4165612820706596e-03 -1.8097292875752954e-02 4.1826126740094421e-02  -3.2812140214145634e-03 -1.9094216821229443e-02 4.2937061829827330e-02  -2.9423881077884568e-03 -1.8528693366613475e-02 4.3889942398888583e-02  -2.9176441296458588e-03 -1.7457972319879618e-02 4.4349305152643140e-02  -2.9375844867301922e-03 -1.6227155450339106e-02 4.4225257598922638e-02  -3.0412323828392937e-03 -1.4551814499119931e-02 4.3706160964028226e-02  -1.8380943991378254e-03 -1.7976486290215945e-02 3.7920686790826622e-02  -1.9226796082290492e-03 -2.0126798198511913e-02 3.9218498664962347e-02  -1.6554843098418122e-03 -2.0237030202867656e-02 4.0513909223104973e-02  -1.3388719492684292e-03 -1.8753848456179095e-02 4.1577975824690458e-02  -1.3157713777805261e-03 -1.7050097230258982e-02 4.2132165888789479e-02  -1.2913019774424518e-03 -1.5181728959502818e-02 4.2229962550296270e-02  -1.3571529169221321e-03 -1.2852765645646740e-02 4.2031426253595211e-02  -6.1313473713461271e-03 8.8305980241150193e-03 4.6819757232124330e-02  -6.1538305905411454e-03 4.1291578037528885e-03 4.5687884547122470e-02  -6.2234217737184199e-03 2.3961180482066525e-04 4.4194119358019306e-02  -6.3247129683681718e-03 -3.0759443448467212e-03 4.2360693408696415e-02  -6.4974928591332625e-03 -5.9496285288649833e-03 4.0132561741002208e-02  -6.5693750804385236e-03 -8.3635535107117638e-03 3.7447993952952702e-02  -6.5566908371853874e-03 -1.0478488998160630e-02 3.4160324462471178e-02  -2.2063968329598269e-04 -2.2546220953806831e-02 2.9694503025503905e-02  -8.3133835998283391e-06 -2.2656323938707916e-02 3.0898048434790253e-02  4.6809507604915712e-04 -2.0254021570400564e-02 3.2045574250499538e-02  4.9272969175950083e-04 -1.7516428938522559e-02 3.2869218906978352e-02  6.6595969760321623e-04 -1.4862523655270498e-02 3.3459901831857500e-02  7.7834329113047631e-04 -8.5755959809919353e-03 3.3958998712773497e-02  -9.1585625312420125e-03 7.3990524677655406e-02 3.9852170531364729e-02  -9.3937257267188400e-03 6.8597475287667117e-02 3.9325961868180215e-02  -8.0242936983148348e-03 5.9395552302789228e-02 4.1629097916293316e-02  -7.7441983721983094e-03 5.5500005312295146e-02 3.6836732502972612e-02  -9.3689902441109526e-03 6.5082211434637799e-02 3.4641747902975299e-02  -8.7816323937295656e-03 7.1030333120411127e-02 3.5047407099859811e-02  -8.4389467248799296e-03 6.8226861060339344e-02 3.0550047383567369e-02  -9.3429039008442148e-03 6.1825329426300923e-02 3.0248425023248333e-02  -7.5187858636617247e-03 5.1962267051996767e-02 3.2268934109443280e-02  -8.0926786660549341e-03 6.5490161545702433e-02 2.6193446130038062e-02  -9.3147698512246191e-03 5.8698984575474414e-02 2.5980494777151048e-02  -7.3126143152965981e-03 4.8625877743354536e-02 2.7787756917647261e-02  -7.7219357719934883e-03 6.2756162909778354e-02 2.1849044575775991e-02  -9.2782803147935366e-03 5.5620237632539128e-02 2.1712582119588712e-02  -7.1095244292780245e-03 4.5390988601859680e-02 2.3247362520916581e-02  -9.2330994314271855e-03 5.2516940142515955e-02 1.7333913506269484e-02  -7.3026323275574108e-03 5.9969544383475758e-02 1.7409928130229711e-02  -6.9037221015428247e-03 4.2170229658047266e-02 1.8529543320003460e-02  -6.8250490500469533e-03 5.7063991955736991e-02 1.2781712892888214e-02  -9.1816852290254602e-03 4.9319374453621459e-02 1.2759681624864769e-02  -6.6940313084525313e-03 3.8908887915328171e-02 1.3556133828503113e-02  -9.2373721839097370e-03 8.1353819495228213e-02 4.1114255357396434e-02  -7.7879846295342081e-03 6.6412940896916114e-02 4.2516555670026379e-02  -7.2546295053194515e-03 6.3169596819200230e-02 3.7316503241535119e-02  -8.5627564771632997e-03 7.9129056041111617e-02 3.6175425272452773e-02  -7.9177229602140024e-03 7.6917675069466895e-02 3.1539575030894711e-02  -6.7841693971014676e-03 6.0164449984520141e-02 3.2436350988483929e-02  -7.2604811284892297e-03 7.4672658042481951e-02 2.7047508884099590e-02  -6.3287882561701737e-03 5.7288375781039590e-02 2.7686519553485538e-02  -6.5477421498485689e-03 7.2364471833638172e-02 2.2562708944145162e-02  -5.8621056207754018e-03 5.4458847899220300e-02 2.2906623555949968e-02  -5.7466101703747413e-03 6.9955803046220233e-02 1.7977357870085441e-02  -5.3646927960092948e-03 5.1598307338067556e-02 1.7961780554185465e-02  -4.8291752315361832e-03 6.7395650299062387e-02 1.3214315321512132e-02  -4.8172278945270083e-03 4.8629200644346199e-02 1.2742865232525609e-02  -8.9213375087020125e-03 5.6710689312869551e-02 4.1035616500965717e-02  -8.9920592352581222e-03 5.2598616202426549e-02 3.6475314796128526e-02  -9.0685932149904142e-03 4.8869514214435750e-02 3.2137415294064539e-02  -9.1485132015518035e-03 4.5387614107274092e-02 2.7864153264101108e-02  -9.2332412316983806e-03 4.2037086144863262e-02 2.3524413928026282e-02  -9.3235536767276340e-03 3.8722991745451275e-02 1.9010832906407510e-02  -9.4173004217716384e-03 3.5364465582018376e-02 1.4229635923354269e-02  -4.7447370900479341e-03 -2.7834799923106640e-02 7.7347767439746992e-03  -3.5449918764842987e-03 -2.9366520659115273e-02 4.7889576860239121e-03  -3.6293849279162753e-03 -2.6736912864942845e-02 1.1660328850219229e-02  -2.9703134448185080e-03 -2.4209328493528349e-02 1.1573935967406183e-02  -2.8617559637973923e-03 -2.6456992107211971e-02 4.5033232963247903e-03  -4.0482515197583285e-03 -2.5093701198719457e-02 7.4396980544065468e-03  -2.6526963636698381e-03 -2.1453407762227057e-02 1.1485473931920787e-02  -2.5222369584238830e-03 -2.3910597522633442e-02 4.1480737821593108e-03  -3.7211124957165762e-03 -2.2489534165575361e-02 7.0794063551580504e-03  -2.3992843325612106e-03 -1.8514021294233626e-02 1.1351923122218277e-02  -2.2194934590614177e-03 -2.1127603215927791e-02 3.7683609079273866e-03  -3.4424714250304266e-03 -1.9699094781815672e-02 6.6587543135945941e-03  -2.2617025181025292e-03 -1.5402243541347933e-02 1.1146639622020537e-02  -2.0298549494488153e-03 -1.8180684239967212e-02 3.3340797049632226e-03  -3.2671111237144918e-03 -1.6735358954785614e-02 6.1842052622790656e-03  -2.2116749186156747e-03 -1.2099081402093217e-02 1.0866559517066592e-02  -1.9293351062955406e-03 -1.5052627491260406e-02 2.8357325261482375e-03  -3.1864884055431211e-03 -1.3594625812152296e-02 5.6516985478866303e-03  -2.2460712119420881e-03 -8.5914501827231288e-03 1.0491642589958848e-02  -1.8956025798135471e-03 -1.1747576625193372e-02 2.2402669856613666e-03  -3.2484749684194188e-03 -1.0311145072508182e-02 5.0538198002020611e-03  -7.9209043296279134e-04 -1.6061290724445298e-02 4.3739813118042190e-02  -1.1200624524415875e-02 9.7839665025770378e-02 4.2424470691904845e-02  -1.2189067115715725e-02 1.0133515135877445e-01 3.9869610711519510e-02  -1.0693979858077268e-02 9.2162582456019812e-02 4.0158128567061031e-02  -9.9024985558598174e-03 9.0828975460197539e-02 3.5879723690682860e-02  -1.1278006184779121e-02 1.0073630533360156e-01 3.6584862060633556e-02  -1.0324489380378339e-02 9.7301537975327979e-02 3.8200454123989723e-02  -9.1373876611670138e-03 8.9358845529023165e-02 3.1864192721820145e-02  -1.0394606671833329e-02 9.9862785877876836e-02 3.3495822541247181e-02  -9.4403898889948452e-03 9.6473462860941245e-02 3.4253118066618751e-02  -8.3274185675342866e-03 8.7756243012261106e-02 2.7979734045567084e-02  -9.4427477469666305e-03 9.8792549826075202e-02 3.0500896867141941e-02  -2.0882537250171162e-03 -1.6381819672756846e-02 3.9625923702582479e-02  -7.7368606550741875e-03 4.6791965468000248e-02 4.3234939943928748e-02  -7.6635749133088429e-03 4.2343693312198977e-02 3.8902263904106560e-02  -7.6115908742690266e-03 3.8377881276094039e-02 3.4730526466548568e-02  -7.5725126642848407e-03 3.4743628962808991e-02 3.0555296577747863e-02  -7.5455104412714682e-03 3.1314406676869008e-02 2.6250082214095513e-02  -7.5357325948065988e-03 2.7976866770346366e-02 2.1703648551161657e-02  -7.5628842927999854e-03 2.4620354718874377e-02 1.6817723191759164e-02  -4.5632732204003053e-03 5.1615708195750828e-02 4.6989501637650401e-02  -4.9055397235103692e-03 4.4072082713743271e-02 4.6287542443261491e-02  -3.2016763984293226e-03 3.3902249806139047e-02 4.7902643507115886e-02  -2.6797001138658522e-03 2.9185172481022634e-02 4.3172973520918985e-02  -4.3973862872891513e-03 3.9835868084666846e-02 4.1102760907978188e-02  -3.9407362443834304e-03 4.7874174473599679e-02 4.1133652543542655e-02  -2.2340223566587750e-03 2.5270589938519036e-02 3.8618440730309483e-02  -3.9600861321078488e-03 3.6209154862969967e-02 3.6233655294832141e-02  -1.9019076406424579e-03 3.6049632733612696e-02 1.9115904470062159e-02  -2.8699985763063094e-03 2.6978351876629086e-02 2.1086501555991972e-02  -1.2606311739656033e-03 1.5886658108111230e-02 2.3962440223339314e-02  -1.0448074325733576e-03 1.3042089589444368e-02 1.8221435876111792e-02  -2.5765391865588188e-03 2.4017989473180661e-02 1.5287524170907119e-02  -1.4833535341849027e-03 3.3242752573760984e-02 1.2854108318950017e-02  1.1860676748081376e-03 -2.4289854405394731e-02 2.3866468846795611e-02  -1.0968532695145037e-03 -2.3939558268707566e-02 2.3952278251213006e-02  -6.8837894096008471e-04 -2.2889415683524063e-02 2.4765014066901750e-02  -7.6144791351998899e-03 7.2298308773380365e-02 4.3500139662221722e-02  -6.9066223597551270e-03 6.9724558635775244e-02 3.7960872036539174e-02  -6.2516449100978987e-03 6.7255843513115185e-02 3.2773372652740100e-02  -5.5972247703414083e-03 6.4839504912903842e-02 2.7732605659106058e-02  -4.9078643872147148e-03 6.2408354454979324e-02 2.2661198774347236e-02  -4.1598460711028034e-03 5.9897367341635144e-02 1.7403850422738763e-02  -3.3327980319849764e-03 5.7241356961066588e-02 1.1810899312355953e-02  -1.0947175022919378e-02 8.9023233748349015e-02 3.6424545280999872e-02  -1.1315398620729526e-02 9.4059037569210843e-02 3.7891776011042010e-02  -1.1649186342885488e-02 9.6062529468904034e-02 3.6012569848565067e-02  -1.1308576486749943e-02 9.4355891972868658e-02 3.2920345347937405e-02  -1.0693248416830987e-02 9.2528105741143674e-02 3.4241122652780780e-02  -1.0770693755437931e-02 8.6739109082452220e-02 3.2640791937204011e-02  -1.0979693841840913e-02 9.2554742479744156e-02 2.9969686002390590e-02  -1.0105062307770878e-02 9.0879853780952785e-02 3.0808510931159151e-02  -1.0581148617845589e-02 8.4428897851367507e-02 2.9054249612242032e-02  -1.0610002299001076e-02 9.0660507856476114e-02 2.7131916115343008e-02  -9.4808426193837194e-03 8.9129176970153115e-02 2.7499588209180720e-02  -1.0359664673070135e-02 8.2068510034125297e-02 2.5599468036970000e-02  -1.0164500624571009e-02 8.8679208529490933e-02 2.4381779894490873e-02  -8.7646065305941427e-03 8.7280912116333306e-02 2.4250897685218757e-02  -1.0089368333382850e-02 7.9640206339547701e-02 2.2217947766070386e-02  -9.6121939086586707e-03 8.6614656849932761e-02 2.1704548207620956e-02  -7.9095464720821580e-03 8.5329862834681261e-02 2.1008129448433992e-02  -9.7577642437931874e-03 7.7127181300676584e-02 1.8868733173244469e-02  -8.9167482700919683e-03 8.4467528574600229e-02 1.9063964292855749e-02  -6.8679401812656964e-03 8.3262403769338938e-02 1.7707588355893485e-02  -9.3467452806657268e-03 7.4538404978918296e-02 1.5552977825336317e-02  4.0609921976704163e-04 -2.5569994769391046e-02 1.7794585010181288e-02  7.5054748495699227e-04 -2.3540561778872891e-02 1.8313643943161154e-02  -1.0204884536606324e-02 7.9492243043543562e-02 3.7664810782753848e-02  -1.0293010576459677e-02 8.5377919661876259e-02 3.8572675570541129e-02  -9.7947372415381033e-03 8.3144559127421538e-02 3.4230511404139172e-02  -1.0156623574816193e-02 7.6637901048837942e-02 3.3280429680492302e-02  -9.3291343763985974e-03 8.0897644883937678e-02 3.0161009348431033e-02  -1.0094961862559678e-02 7.3877894191150942e-02 2.9179690790674635e-02  -8.8424246360396773e-03 7.8615998694002889e-02 2.6236005289887763e-02  -1.0006526417883252e-02 7.1157555847924311e-02 2.5230348414440051e-02  -8.2971432476206652e-03 7.6276285363263155e-02 2.2355821525782117e-02  -9.8920296496765522e-03 6.8424567488320306e-02 2.1331368801927698e-02  -7.6597049827093920e-03 7.3847310554060075e-02 1.8441571293409023e-02  -9.7494110431827537e-03 6.5625384843693083e-02 1.7402861982863990e-02  -6.8985986935741249e-03 7.1294817496882046e-02 1.4429390947992124e-02  -9.5779301509444116e-03 6.2694357681670226e-02 1.3382028522076995e-02  -7.7033692024594414e-03 -3.1578160901694428e-02 -1.9943670618745614e-03  -6.0246044901734455e-03 -3.1473146587663849e-02 -8.2580533190705228e-04  -6.8946211708485099e-03 -2.