<?xml version="1.0"?>
<VTKFile type="UnstructuredGrid"  version="0.1"  >
<UnstructuredGrid>
<Piece  NumberOfPoints="981" NumberOfCells="4214">
<Points>
<DataArray  type="Float64"  NumberOfComponents="3"  format="ascii">7.376440303582541 3.802851683860807 1.269222908809696  7.213932430564562 3.824005962749197 1.312733091601731  7.363152636850844 3.867090196564549 1.361568804020625  7.361460565744081 3.922729320920384 1.323266236745892  7.211412184539999 3.87812834156478 1.272330577219584  7.373663796969425 3.856919955424378 1.227921978144125  7.359641692293136 3.978384083680736 1.284970736061744  7.208783906327801 3.93227676196844 1.231973844040864  7.370789001081679 3.911000921438796 1.186607651118477  7.357733310872884 4.034047849805908 1.246656489493784  7.206083625128379 3.986432290788718 1.19162644885796  7.367842428163601 3.965089309148928 1.145265854345026  7.355781507836154 4.089715220685312 1.208300469503923  7.203349074258224 4.040576542109258 1.151255153418979  7.364854007154437 4.019182739547438 1.103881390599627  7.353829824210585 4.145387923002819 1.169885788485266  7.200623406227039 4.094694243730236 1.110830325906134  7.361850836560713 4.073289256015115 1.062444239096723  7.35193144879026 4.201054572154563 1.13139991967008  7.197940089070341 4.148773906989372 1.070324681678462  7.358863829490603 4.127405297002888 1.020934741341471  7.841603294341793 4.298156419125681 2.153467800950978  7.882151188105116 4.279430253612083 2.318413133843713  7.777294102554839 4.295151378380817 2.282826251955457  7.771849793436668 4.235919165618624 2.279750978358936  7.885095326526407 4.338329901853133 2.323126905538317  7.843497111981597 4.358537995520314 2.156427973154706  7.783004268265292 4.354807095701696 2.285956139562538  6.828309440057855 4.218263609012669 2.258354105292895  6.74586657189371 4.206282616837709 2.185594358679337  6.733412281732043 4.25120157494159 2.323741628143626  6.735653799507584 4.317935922036775 2.30688377115933  6.750199495680564 4.270607203670184 2.165774377462014  6.840165269298124 4.281885804047818 2.240001298399342  6.851635182107081 4.34516438069895 2.221812553550264  6.754355929858027 4.334445380099189 2.146178182054148  6.737788629186554 4.38406810970789 2.290206504479511  6.86292270134882 4.408119624364508 2.203762367562631  6.75842762819371 4.397937969861938 2.126739731987046  6.739872593080652 4.449853692710221 2.273657480777407  6.87414134931498 4.470830326677144 2.185821721925074  6.762467698048972 4.461167297545668 2.107418888575442  6.697898266053205 4.099017404828223 1.880802695694323  6.585744613227277 4.128610753984817 1.966180907044145  6.690748409372921 4.141475455520474 1.987321475621865  6.69238462898605 4.203683866525089 1.963417180228485  6.579584251342544 4.191413740760018 1.943835507775306  6.699067618882652 4.16138424752432 1.858538864526218  6.693873151188368 4.265509409478605 1.939833094606362  6.573514868885333 4.253854536754841 1.921793518794428  6.700061576668314 4.223484706200118 1.836584767333719  6.695334825437231 4.327049980144861 1.916433803420918  6.567507397344844 4.31601729646512 1.899940497592228  6.701004365646807 4.285352529132965 1.814827475319135  6.696801463251889 4.388353623801561 1.893145903068163  6.561558166234856 4.377942977217389 1.878194431761751  6.701950862998714 4.347006878280984 1.793173606239286  6.698303486776353 4.449428454624766 1.869922957830269  6.55561581013706 4.439637198921434 1.856513700148368  6.702932628965637 4.408432670222746 1.771559686587478  6.699864989834349 4.510223715088871 1.84673795755147  6.54962045733178 4.501015384529748 1.834841137289576  6.704024039141832 4.469507500531041 1.749863163907147  6.627518513476136 4.211825903562075 2.215403582097231  6.620541735848988 4.277073326855589 2.197127261066446  6.613705530426337 4.341755678425685 2.179069296934287  6.606944910200085 4.406051497521323 2.161169839625109  6.600223212326989 4.470066631628675 2.143373103543341  7.968698968981044 4.010230575738307 1.813500500081994  7.87490901612593 4.008125162806969 1.888262517025648  7.957214907475893 4.011391285706919 1.907339266605891  7.954010650749837 4.073298272932183 1.90680715582847  7.872812886690507 4.070342641182775 1.887053032533219  7.964680928045239 4.07354192197507 1.810719026877772  7.950800498681646 4.135424943201987 1.90610956211482  7.870662076712049 4.132762475984286 1.885693405938894  7.960663829673428 4.137038050254168 1.807735089370143  7.947529118330603 4.197780309162228 1.905381781765047  7.868450401113043 4.19538834789525 1.884302756468349  6.554006701436572 4.166090109567939 2.09358790857206  6.660513999714381 4.180577269056974 2.089241894580611  6.658158703176268 4.244730165030305 2.06840299809989  6.543500577665526 4.22992587307581 2.074419016851381  6.655837914178238 4.30831878401302 2.047867930812003  6.533252945501239 4.29327877840625 2.055503276757428  6.653523904574283 4.371570346754786 2.027511185245722  6.523148317472195 4.356294122073062 2.036769860486893  6.651217760064343 4.434568245137917 2.007277857013876  6.513122639297064 4.419051757025959 2.018144837315099  6.648920112791436 4.497335731600165 1.987121654031059  6.503064728300682 4.481567848862493 1.999585901836671  6.646607825598446 4.55987440396187 1.966982388990109  6.492887990604557 4.543792326663636 1.981054175215275  7.881367125674176 4.003458631684627 1.754699813170548  7.878168406318741 4.067359474378886 1.748566858266403  7.874923337878071 4.131447590727731 1.742233468965526  7.871596956215917 4.195718950996588 1.73585837291229  7.642616140219157 4.011966955351608 2.28062206349786  7.486432067078452 4.04014318086602 2.257990083623953  7.588470398532969 4.023307610935185 2.389228137818315  7.600266086793752 4.08176591965973 2.388413327328278  7.497787081455797 4.099294431888091 2.256013946941791  7.650834269011981 4.070544319435917 2.281697378677197  7.611803229711202 4.140428274731293 2.387728849106447  7.508850641259559 4.158623685604143 2.254153724204332  7.65882225624116 4.129312356245068 2.282861262423659  7.623254488301717 4.199271365823028 2.387083211495771  7.519803045644525 4.21809194197711 2.252331622453455  7.666728734892169 4.1882724995038 2.284049903511428  7.634772134393115 4.258273659873052 2.386423590462087  7.530801430224551 4.277669375529363 2.25049172782867  7.6746796104356 4.247415584345914 2.285239045441528  7.646505923410971 4.317438217890132 2.38571584046627  7.541999306756348 4.337349386627572 2.248608902402676  7.68279399922958 4.306753058194643 2.286418109430307  7.658650104196469 4.376782111912345 2.384902350463234  7.553592382791802 4.397152799164 2.246648170932656  7.691240578798733 4.366314536110737 2.287574234288686  7.590640341269856 4.021125766104293 2.186498232548862  7.598435615133078 4.080469708065624 2.186307270661044  7.605996659612665 4.140011403901066 2.18617645835893  7.613469902398928 4.199724568492456 2.186060598687488  7.620978137802649 4.259596247322734 2.185938106928523  7.628639528962798 4.319638207242393 2.185807709568931  7.636580066098753 4.379888562001083 2.185663212037378  6.589016439547407 4.083829149661005 1.836527784260045  6.58379298896744 4.146208858205844 1.812707968820431  6.578613097428607 4.208267344372858 1.78923649450499  6.573474161920853 4.270099221381057 1.765955055833339  6.568365536186441 4.3317300775073 1.742774609683855  6.563272704485735 4.393144482733837 1.719605802943532  6.558161083977305 4.454296380555656 1.696312158281647  7.035414266678899 4.09061973858364 1.94536065098275  6.913863043465769 4.10518202163276 1.934311474254062  6.980134459228449 4.117411225819504 2.037204815016564  6.99241255050975 4.178664672992283 2.022634296072986  6.920565651456545 4.167177398248373 1.91647338636954  7.044707202972726 4.152414276528438 1.931898209638797  7.004284883077612 4.239802070408364 2.008213563376302  6.926999693048207 4.22903806559048 1.898850480002794  7.053657241004234 4.214153002100083 1.918594570152064  7.015935381006648 4.300808933755352 1.99393692395266  6.933268385431561 4.290759418886843 1.88138506199925  7.062422317640046 4.275811238067432 1.905418716685999  7.027510920045975 4.361672825796778 1.979767790794207  6.939477367773592 4.352319581192365 1.864015354978768  7.071137337500205 4.337355053276178 1.892322305792981  7.039144464969795 4.422362021425751 1.965670979115534  6.945719338305234 4.413680736030736 1.84669490101382  7.079921180433447 4.398736551935739 1.879260158704589  7.051094307082606 4.482746547296482 1.951500899431685  6.95219190851019 4.474708315315928 1.829243386489047  7.089024923222731 4.459842702780765 1.866027254491642  7.848183762467056 4.27505563071186 2.429805526117608  7.854832819697563 4.333658313954807 2.43363039795424  6.98303010900599 4.076284917130553 1.854343119597031  6.989482899900105 4.138228587657829 1.83709420418028  6.995637685965616 4.200063003671455 1.820067478226991  7.001640113579675 4.261804391544224 1.803179163774553  7.007593611193352 4.323431054465433 1.786366100202972  7.013601832909162 4.384903508834719 1.769565437631025  7.019890518019722 4.446118537051395 1.752582888941298  6.444524320119239 4.184283267850669 1.983414072406057  6.430477584661499 4.246385680001496 1.964173848752508  7.384616259412585 4.0286807156589 1.866347805287334  7.281095319261862 4.05171710469164 1.925590486227843  7.374365666550014 4.042719380387188 1.967422454753604  7.382905784400801 4.104167609331003 1.961748096588008  7.289261623257607 4.113670498531995 1.91710408031964  7.391316605397195 4.090783000406164 1.857883110604058  7.39109903012115 4.165708082955021 1.956142537549579  7.297078730941407 4.175681420648623 1.908728246754956  7.39769091612577 4.152962153268316 1.849467147649878  7.39915304025786 4.227307380917122 1.950544343956881  7.304757337320803 4.23771621029694 1.900373513990816  7.403921240340095 4.215190821058672 1.841052313895829  7.407223692829618 4.288949732937746 1.944921902357071  7.312445696009196 4.299744420802647 1.891994977074089  7.410152950632044 4.277457716918908 1.832609010644116  7.4154465
[...]
<PointData  Vectors="f_16"> 
<DataArray  type="Float64"  Name="f_16"  NumberOfComponents="3" format="ascii">-1.6174742234774241e-02 1.7961289424298952e-02 4.1470621039793730e-02  -1.4768670325416178e-02 2.2331236967258621e-02 4.2419002628782086e-02  -1.6453662381687422e-02 2.9234346720134988e-02 4.0566166142178429e-02  -1.6942639081328904e-02 2.3889517087154637e-02 3.7262393988579626e-02  -1.5174680975524322e-02 1.7212446694040609e-02 3.9892918065072329e-02  -1.6585626298304807e-02 1.2943432419036924e-02 3.9289685017000725e-02  -1.7441202215376244e-02 1.9195202893185454e-02 3.3758321600017238e-02  -1.5612954843928602e-02 1.2776906414297799e-02 3.7178575462886845e-02  -1.7037968061150949e-02 8.6544856231356611e-03 3.6854950508764493e-02  -1.7935487355473682e-02 1.5023452795974971e-02 3.0024664862856001e-02  -1.6046720549331945e-02 8.8529855423027937e-03 3.4177803414936835e-02  -1.7391360691067094e-02 4.8246937138726916e-03 3.4063698732937846e-02  -1.8299416437644617e-02 1.1148249258469968e-02 2.5951295020303404e-02  -1.6363328086240223e-02 5.2500210098543722e-03 3.0793895917890099e-02  -1.7576200161883420e-02 1.2896342630645027e-03 3.0830794769483770e-02  -1.8534478820741503e-02 7.4320695262508202e-03 2.1461681624919317e-02  -1.6561118426898579e-02 1.8295820742072020e-03 2.6970437773660431e-02  -1.7660380284020033e-02 -1.9900331836300504e-03 2.7108598711517218e-02  -1.8735053734682094e-02 3.8195619858760583e-03 1.6511970885229179e-02  -1.6733164509350945e-02 -1.4656558771858040e-03 2.2641120964289791e-02  -1.7809030510445713e-02 -4.9998689961054674e-03 2.2858932903893611e-02  -2.5789673012082782e-02 1.2784790162562359e-01 1.0637206505687568e-02  -2.5008359116931479e-02 1.4069805423132281e-01 1.7453570182315459e-02  -2.4089731837978901e-02 1.3562206222393206e-01 1.7036792020557270e-02  -2.2347613655249850e-02 1.3658635737598132e-01 2.0076303908851779e-02  -2.6701244938607843e-02 1.3917287050601063e-01 1.4176851533809940e-02  -2.7177572067990836e-02 1.2624275688315542e-01 5.4966657917642561e-03  -2.5928049161806577e-02 1.3401944330484997e-01 1.3656619371692456e-02  -1.1664044913129019e-02 1.0627675243188715e-01 3.2417026218355245e-02  -1.1735116240561087e-02 1.0181046791864878e-01 3.2859812553146087e-02  -1.2025885834054799e-02 1.0599110794110209e-01 3.3190380884785764e-02  -1.3136575789673886e-02 1.0470742045444655e-01 3.2026072395578149e-02  -1.2932359216414875e-02 1.0025806662485792e-01 3.0552467267992253e-02  -1.3234593720926511e-02 1.0531593794027287e-01 3.0603071968945957e-02  -1.4536046410711243e-02 1.0403746411683391e-01 2.8795698973348136e-02  -1.3906244942984067e-02 9.8504828146825194e-02 2.8280696481668362e-02  -1.4034876148005344e-02 1.0327683708910833e-01 3.0794440114036190e-02  -1.5794653768524305e-02 1.0251198074228661e-01 2.7079385486543858e-02  -1.4822016223941871e-02 9.6575032109005463e-02 2.6116438137779537e-02  -1.4888211582050665e-02 1.0167937905458266e-01 2.9627160027182978e-02  -1.7150540710224829e-02 1.0080664085438187e-01 2.5510814057385311e-02  -1.5788668969752409e-02 9.4512803096735223e-02 2.4093216208380907e-02  -1.1100333482746848e-02 8.1320545982387929e-02 3.6301775410911327e-02  -1.1036884946178625e-02 8.6911695101521677e-02 3.5547935274896116e-02  -1.1355592319201004e-02 8.9564410389965224e-02 3.4566620045060080e-02  -1.2220431339765435e-02 8.7082063334805282e-02 3.0856987876642566e-02  -1.1426588947100313e-02 8.4307835186598457e-02 3.1690516022918266e-02  -1.1918247192672204e-02 7.8553706213673968e-02 3.1891155375454554e-02  -1.2923828851582490e-02 8.4507072382032908e-02 2.7321087721121698e-02  -1.1722453548365820e-02 8.1704699048451040e-02 2.8054973578587654e-02  -1.2594600160375268e-02 7.5848254556833195e-02 2.7841895131505600e-02  -1.3574824961607182e-02 8.1849598983948252e-02 2.3926387405489725e-02  -1.1972954952122793e-02 7.9075081396498922e-02 2.4569057286568548e-02  -1.3224622989590165e-02 7.3165036670399461e-02 2.3986649614666664e-02  -1.4245707566935014e-02 7.9097997409545623e-02 2.0627680732802283e-02  -1.2208913786133153e-02 7.6388404140769028e-02 2.1166988107065313e-02  -1.3863551464872059e-02 7.0448846787483893e-02 2.0213256474269265e-02  -1.4997412296126358e-02 7.6233252611940458e-02 1.7413443436306790e-02  -1.2451811512784117e-02 7.3609177883975016e-02 1.7800420488976693e-02  -1.4556710359103102e-02 6.7627260700820854e-02 1.6440539695939609e-02  -1.5892513116292674e-02 7.3268348424495061e-02 1.4373504988660683e-02  -1.2707065566884300e-02 7.0654223547589601e-02 1.4463053717342952e-02  -1.5350852487880966e-02 6.4519920996454344e-02 1.2648825244950054e-02  -1.1929208105841124e-02 1.0139036951155536e-01 3.3825640471574082e-02  -1.2451386421245693e-02 9.9685605830945545e-02 3.1764986393632559e-02  -1.2859545376237059e-02 9.7867170933852249e-02 2.9713019350835868e-02  -1.3211067788026947e-02 9.5942126875763395e-02 2.7730109358375690e-02  -1.3547361957639248e-02 9.3927992499517540e-02 2.5853883030463043e-02  -2.3735681339929867e-02 9.4105251938421342e-02 3.3889453340833972e-02  -2.2245109974390300e-02 1.0260167187218992e-01 3.4154278853397578e-02  -2.3160652412391600e-02 1.0581725935848456e-01 3.3602129266501191e-02  -2.3974144744967747e-02 1.0560983198131493e-01 2.6448831911473986e-02  -2.3102445554319249e-02 1.0223719271589234e-01 2.6959723930106420e-02  -2.4417978907344998e-02 9.3070560281207651e-02 2.6108698544759768e-02  -2.4883980087111162e-02 1.0502248112834831e-01 1.9854568989943130e-02  -2.4021270469922917e-02 1.0155400620718275e-01 2.0391558045050977e-02  -2.5177492628204044e-02 9.1932950825282758e-02 1.8972269039840398e-02  -2.5824838144309682e-02 1.0415059329560909e-01 1.3439640351962311e-02  -2.4981044189587069e-02 1.0060822924688770e-01 1.4018468602234258e-02  -1.1556380194251809e-02 9.5055581940892600e-02 3.4844014238248740e-02  -1.1635006267791776e-02 9.5682590317642841e-02 3.3647137222142576e-02  -1.2373892366491123e-02 9.3584827656680095e-02 3.0629717225335373e-02  -1.1735332310460991e-02 9.3012717620182345e-02 3.1781040657691328e-02  -1.2965236075166503e-02 9.1422511618621277e-02 2.7737243858834030e-02  -1.1863916290138072e-02 9.0899397177931565e-02 2.8850923690844091e-02  -1.3504793774471766e-02 8.9142540506351189e-02 2.4976783281219970e-02  -1.1945491977779278e-02 8.8704234199217108e-02 2.6041163307818013e-02  -1.4056143894228549e-02 8.6749771558330011e-02 2.2345260404092442e-02  -1.1995218862006343e-02 8.6424038361817293e-02 2.3338688162175967e-02  -1.4665744604636174e-02 8.4252944569353630e-02 1.9840852070402350e-02  -1.2023720847222984e-02 8.4060698892380853e-02 2.0734405045786202e-02  -1.5368357188147583e-02 8.1679152961813731e-02 1.7426165515325141e-02  -1.2035668927251915e-02 8.1612724508562273e-02 1.8219014751477983e-02  -2.2911966283954262e-02 8.5655454829078340e-02 3.4391285844112607e-02  -2.3557620646126532e-02 8.3913713091874176e-02 2.6643815674960266e-02  -2.4288079486202648e-02 8.2202917527687006e-02 1.9492821888169927e-02  -2.5061920215470206e-02 8.0467302916800293e-02 1.2557279695437944e-02  -1.4079045719251893e-02 1.3260567853441330e-01 3.1566728122208440e-02  -1.2766935427179360e-02 1.2688510891563487e-01 3.2019667701624524e-02  -1.1862310791132757e-02 1.3479988773462348e-01 3.0557262168050287e-02  -1.4217232071470626e-02 1.3603272053901785e-01 2.8984835898726250e-02  -1.4920688216816530e-02 1.2786507974882097e-01 2.9083956027184037e-02  -1.6055565139415522e-02 1.3370291834572753e-01 2.8825445424255681e-02  -1.6082288894328885e-02 1.3675043461118730e-01 2.7515215936270605e-02  -1.6610181914029722e-02 1.2829957589486901e-01 2.6449983411273723e-02  -1.7699068445958907e-02 1.3433805512412522e-01 2.6286705116917945e-02  -1.7869984672944553e-02 1.3694590094032902e-01 2.6087688343774534e-02  -1.8302678802706890e-02 1.2823232347014232e-01 2.3887345235944747e-02  -1.9357899439567734e-02 1.3445882708019746e-01 2.3763477261374011e-02  -1.9779647039963117e-02 1.3661549257351577e-01 2.4672032557190946e-02  -2.0129523109974526e-02 1.2765601348032210e-01 2.1341710974961767e-02  -2.1104281497269173e-02 1.3405456314455222e-01 2.1199846544818813e-02  -2.1884690793836967e-02 1.3569731985586109e-01 2.3283236694785516e-02  -2.2147393812843769e-02 1.2650611183355434e-01 1.8756796828528280e-02  -2.2979064968447767e-02 1.3307152057661706e-01 1.8535383113538684e-02  -2.4275241138519966e-02 1.3411766386738133e-01 2.1944263137006193e-02  -2.4421065622416485e-02 1.2467955787742946e-01 1.6022631479242325e-02  -2.5039769495254167e-02 1.3132941997438013e-01 1.5676954652515358e-02  -1.5001304516350242e-02 1.2583937908957976e-01 3.2516031880431964e-02  -1.6797962787873846e-02 1.2671555446184940e-01 2.8775876863966546e-02  -1.8317954251119269e-02 1.2710293577983348e-01 2.5363793982660487e-02  -1.9898388300705661e-02 1.2698416080029784e-01 2.1964432625881877e-02  -2.1565945450721057e-02 1.2635145644591203e-01 1.8525847204747266e-02  -2.3349537026771557e-02 1.2515719634131470e-01 1.4934845816462381e-02  -2.5263337261634506e-02 1.2330023454912127e-01 1.1037178716326793e-02  -1.0504656284600428e-02 7.6148351429002600e-02 3.7027697253399022e-02  -1.0881439146569291e-02 7.2992515154561372e-02 3.2589872827357987e-02  -1.1186606591287014e-02 7.0016221006905535e-02 2.8442975167944560e-02  -1.1461177993308865e-02 6.7102383815773325e-02 2.4454315579340004e-02  -1.1727808117241625e-02 6.4181146043301746e-02 2.0513562939261251e-02  -1.2003927386119276e-02 6.1187188164194273e-02 1.6532381074342736e-02  -1.2335673801851637e-02 5.8069055053648698e-02 1.2407307066461813e-02  -1.2909072191207956e-02 9.3300395695124813e-02 3.5270494220443933e-02  -1.2207156117205796e-02 8.9627907906023874e-02 3.5185164133346575e-02  -1.2071316809723955e-02 9.9118540973504615e-02 3.4396424665636111e-02  -1.3632417930058361e-02 9.8074023002960212e-02 3.0261867416841403e-02  -1.3557657217740104e-02 8.7650337601564807e-02 3.0578399583038512e-02  -1.4372215340820565e-02 9.1883803619651053e-02 3.0331304655779809e-02  -1.5060209654784744e-02 9.6730210309990836e-02 2.6519266515799757e-02  -1.4769221938817941e-02 8.5561683402158972e-02 2.6417491236456866e-02  -1.5733830690357227e-02 9.0294146381789314e-02 2.5911803642991397e-02  -1.6459396460858949e-02 9.5145692728593911e-02 2.3028843998855790e-02  -1.5942087228366181e-02 8.3354823983736864e-02 2.2506851537165095e-02  -1.7088159568360451e-02 8.8524538992394000e-02 2.1777490397134201e-02  -1.7932022711744992e-02 9.3331276114654901e-02 1.9679780710307734e-02  -1.7162183343536207e-02 8.0997148329252297e-02 1.8709431027932925e-02  -1.8513340267291862e-02 8.6532291465729480e-02 1.7753707958534249e-02  -1.9591018176391081e-02 9.1251124107651904e-02 1.6400373144258087e-02  -1.8512307658328096e-02 7.8423022970756998e-02 1.4920975848975067e-02  -2.0082077549411034e-02 8.4233161128345391e-02 1.3672163352979069e-02  -2.1618907945726375e-02 8.8740776763967619e-02 1.3212376713172748e-02  -2.0070340213634966e-02 7.5506679124074091e-02 1.1031191459411959e-02  -2.1838299035325606e-02 8.1557410347936829e-02 9.2603932430817670e-03  -2.3499846098809018e-02 1.4402870113739513e-01 2.2904413333671287e-02  -2.5563281595093117e-02 1.4251872567477555e-01 2.1247652650035580e-02  -1.2937649343070755e-02 8.3779824453657142e-02 3.6106121518211583e-02  -1.4232118331266632e-02 8.1519751892156073e-02 3.0906977725437622e-02  -1.5430692134673683e-02 7.9257839060120822e-02 2.6210834039314210e-02  -1.6609476720140914e-02 7.6935807163848999e-02 2.1771279969721589e-02  -1.7830097975969392e-02 7.4481035777076501e-02 1.7390161040567623e-02  -1.9142881606955740e-02 7.1803082710127225e-02 1.2892822359395501e-02  -2.0595172391666507e-02 6.8819275509633682e-02 8.1207428280229317e-03  -1.0770693755437931e-02 8.6739109082452220e-02 3.2640791937204011e-02  -1.0581148617845589e-02 8.4428897851367507e-02 2.9054249612242032e-02  -1.6697378698343340e-02 9.2902169209340829e-02 3.6222314267817475e-02  -1.5202085366507643e-02 9.7023366443296649e-02 3.5525804292822219e-02  -1.5807560367904282e-02 1.0302773802763379e-01 3.5127884671628300e-02  -1.7107723500429616e-02 1.0265644954217749e-01 2.9463881760231118e-02  -1.6550949728003458e-02 9.6087475832831351e-02 2.9752995697186306e-02  -1.7894378213864085e-02 9.1681944839707985e-02 2.9832509360510448e-02  -1.8452119990737301e-02 1.0192215332885093e-01 2.4335240498561488e-02  -1.7900623969848879e-02 9.4902618703808700e-02 2.4560122254371958e-02  -1.9115952475483904e-02 9.0291131024492960e-02 2.4050979135310579e-02  -1.9860480034404202e-02 1.0085270943142405e-01 1.9468252208839944e-02  -1.9293480749114848e-02 9.3458599910883039e-02 1.9649190543507510e-02  -2.0378264627022795e-02 8.8702728915431003e-02 1.8547351878654646e-02  -2.1352326198757814e-02 9.9426827252595704e-02 1.4622796277195172e-02  -2.0763888817858171e-02 9.1711357995879497e-02 1.4771712098842524e-02  -2.1691375253509188e-02 8.6872183332436445e-02 1.3038760284541826e-02  -2.2944284911975640e-02 9.7586990428883968e-02 9.5616883479679327e-03  -2.2334155247417269e-02 8.9599032090943123e-02 9.6873590936047589e-03  -2.3058581380971447e-02 8.4741027520555359e-02 7.2680591137679641e-03  -2.4631772960664110e-02 9.5300116846006699e-02 4.0281688506050477e-03  -2.4007055546311336e-02 8.7127357084802570e-02 4.1327089494701281e-03  -2.4497061308965066e-02 8.2207176152713321e-02 1.0239763641354269e-03  -1.5759404567530375e-02 1.3498869387065537e-01 3.1353980185285485e-02  -1.3284874891393756e-02 1.3817812835932006e-01 3.0478674920411411e-02  -1.4220490086695441e-02 1.4276605543706491e-01 2.9859919406695148e-02  -1.5441503402073047e-02 1.3938672904991506e-01 2.8801338168187137e-02  -1.7554704245645616e-02 1.3614778825649843e-01 2.8505458890583424e-02  -1.6301523686818135e-02 1.4399964871330317e-01 2.8656716772459217e-02  -1.8087135090475208e-02 1.4481397246554492e-01 2.7310094397584965e-02  -1.7222547425652750e-02 1.4013391033128331e-01 2.7149616602826759e-02  -1.9100562047364475e-02 1.3681336388512899e-01 2.5734387654760105e-02  -1.9816177996275469e-02 1.4511295961633963e-01 2.5913897085228715e-02  -1.8952591480209790e-02 1.4036482464409653e-01 2.5483851493186636e-02  -2.0691874417130850e-02 1.3696474546271875e-01 2.2945887074631414e-02  -2.1603506190100503e-02 1.4487073340430318e-01 2.4452026555565439e-02  -2.0769280226445554e-02 1.4006558138868885e-01 2.3771967438676544e-02  -2.2720364691232727e-02 1.3918101304586880e-01 2.2005193671070039e-02  -2.4876187457485637e-02 1.3755917513489702e-01 2.0192531237709893e-02  -1.6252134651024281e-02 8.3659958202579279e-02 3.6933402092936787e-02  -1.7418876905612637e-02 8.1788264197060950e-02 3.0463721453936263e-02  -1.8589800677281991e-02 7.9934440445282057e-02 2.4616069063429447e-02  -1.9785403185402377e-02 7.8018081312984433e-02 1.9050778689380883e-02  -2.1020040222714566e-02 7.5951470850926309e-02 1.3481536606580831e-02  -2.2297826685149850e-02 7.3650304814562112e-02 7.6512925630604573e-03  -2.3615829419355555e-02 7.0999628103964291e-02 1.3197185563997855e-03  -1.4971085715781653e-02 1.1908696270759558e-01 3.3361339690622271e-02  -1.6702648077674079e-02 1.1967525061677686e-01 2.9030372789151021e-02  -1.8174539222279691e-02 1.1975238121278994e-01 2.5066302960786227e-02  -1.9721856058406758e-02 1.1934689791622211e-01 2.1195258011953690e-02  -2.1369765791172748e-02 1.1846165676128048e-01 1.7298981871265568e-02  -2.3140932829086504e-02 1.1704787754145680e-01 1.3234204622870185e-02  -2.5048093555066677e-02 1.1503494726551830e-01 8.8482739575156833e-03  -1.0156623574816193e-02 7.6637901048837942e-02 3.3280429680492302e-02  -1.0094961862559678e-02 7.3877894191150942e-02 2.9179690790674635e-02  -1.5054248714724114e-02 4.9881225773104776e-02 3.9620045769133694e-02  -1.3949484745948586e-02 4.5346762362712213e-02 4.0555166717711047e-02  -1.4620382557400747e-02 5.9866913206006282e-02 3.8945415487197224e-02  -1.5541149120445685e-02 5.6025744295450187e-02 3.3306979877685612e-02  -1.4603863906861999e-02 4.0645528618862406e-02 3.5939599508971819e-02  -1.5814366309955533e-02 4.5529309733932793e-02 3.4352162636270368e-02  -1.6439619825717421e-02 5.2590016283656026e-02 2.8087332113148407e-02  -1.5280980820621117e-02 3.6549149066017500e-02 3.1481655871132039e-02  -1.6588427092727513e-02 4.1792184198284614e-02 2.9379735918976985e-02  -1.7338802052446950e-02 4.9383066065857857e-02 2.2997085400946256e-02  -1.5958273394741280e-02 3.2816559959040148e-02 2.6998543756988239e-02  -1.7368395928605430e-02 3.8382183366704181e-02 2.4422786361394565e-02  -1.8247632523716171e-02 4.6259672146524669e-02 1.7816530757101812e-02  -1.6631963678768770e-02 2.9282484129013717e-02 2.2337951346727034e-02  -1.8149412211095874e-02 3.5121931421458620e-02 1.9293656190486615e-02  -1.9166634207991372e-02 4.3108989736987152e-02 1.2370872140183835e-02  -1.7309890233476288e-02 2.5821648210904526e-02 1.7378081093622957e-02  -1.8934722593691621e-02 3.1884805678926501e-02 1.3843531651449468e-02  -2.0084070725650841e-02 3.9835430265510452e-02 6.5101808365823381e-03  -1.8017940893451777e-02 2.2333795546075723e-02 1.2026255389978365e-02  -1.9725106502019096e-02 2.8591880982813549e-02 7.9492014045985260e-03  -2.2439156575304688e-02 -1.1729633073910414e-02 2.7885211419198100e-02  -2.0974507921339518e-02 -1.1825020589242730e-02 2.9773164892061131e-02  -2.1279556542646523e-02 -7.6548533074632741e-03 3.1730406555706248e-02  -2.1282457157830656e-02 -1.1096475290398681e-02 3.2615742061082337e-02  -2.1074459698066515e-02 -1.4546615955059827e-02 3.0918938179104696e-02  -2.2459387677069773e-02 -1.4543449340582619e-02 2.9034363839934612e-02  -2.1421562230003743e-02 -1.3551984692654260e-02 3.3324038021204178e-02  -2.1699233540897405e-02 -1.5568502389301544e-02 3.2027182184735839e-02  -2.2211311551516105e-02 -1.4874836047813996e-02 2.5270621258379727e-02  -2.2594547358390827e-02 -1.6602309384896010e-02 2.6462273546059786e-02  -1.3539245314259256e-02 1.1808796890073464e-01 3.3292104502633209e-02  -1.5434365093774466e-02 1.1863090328822004e-01 2.9325652684855010e-02  -1.6968809743988716e-02 1.1866266627360302e-01 2.5733561616114668e-02  -1.8591099698767332e-02 1.1821758313194862e-01 2.2298396376196107e-02  -2.0344892269118151e-02 1.1730226065227842e-01 1.8907259470901359e-02  -2.2285689933909131e-02 1.1585776112910394e-01 1.5446318226621285e-02  -2.4453348846376212e-02 1.1376914930390770e-01 1.1714127412597386e-02  -1.3123876385292376e-02 5.1782795258220590e-02 3.9918910166807910e-02  -1.3880720608320430e-02 4.7486705019317968e-02 3.5071688947491048e-02  -1.4618722141158573e-02 4.3701622881890154e-02 3.0457789140964985e-02  -1.5351813280224717e-02 4.0200279760380320e-02 2.5876272045068826e-02  -1.6088952194054620e-02 3.6840275747245320e-02 2.1167694165042234e-02  -1.6839046416489842e-02 3.3511131597550335e-02 1.6200339899906137e-02  -1.7607178767555052e-02 3.0133644039980072e-02 1.0849713603074088e-02  -2.0159338572072541e-02 -4.9720135946565158e-03 3.4343538515384200e-02  -2.0163539195483710e-02 -8.6585516406819558e-03 3.4984549381521755e-02  -2.0290402620867794e-02 -1.1610939000314650e-02 3.5335192196192647e-02  -2.0751247124596764e-02 -1.3529304234539361e-02 3.5320581410305023e-02  -2.2933782321350574e-02 -1.4997158488199776e-02 3.2832526842973130e-02  -2.2227687505086233e-02 -1.4439936191695224e-02 3.3731063264921091e-02  -2.1722068055614396e-02 -1.4338103538898594e-02 3.4745253568884846e-02  -2.4072692476242670e-02 -1.4223734259136252e-02 3.3060795739099660e-02  -2.3415247242788862e-02 -1.4564965482650193e-02 3.3489713417457524e-02  -2.2793202087549667e-02 -1.4546297370144382e-02 3.3629794561286980e-02  -2.5238835904732863e-02 -1.3144220189141770e-02 3.2856827755812820e-02  -2.4609250347952531e-02 -1.4291194875868525e-02 3.2738334975993426e-02  -2.3831342635095593e-02 -1.4273650354091455e-02 3.2037914900930400e-02  -1.4978113263858030e-02 8.4996750572360086e-02 3.6672625557819444e-02  -1.6227714760426060e-02 8.3100712238808203e-02 3.0615146199834738e-02  -1.7462535417453282e-02 8.1196798478976553e-02 2.5172704426691582e-02  -1.8713845768556409e-02 7.9206477780564499e-02 2.0020281674742613e-02  -2.0010960908998305e-02 7.7047293779101453e-02 1.48919039