<?xml version="1.0"?>
<VTKFile type="UnstructuredGrid"  version="0.1"  >
<UnstructuredGrid>
<Piece  NumberOfPoints="996" NumberOfCells="4341">
<Points>
<DataArray  type="Float64"  NumberOfComponents="3"  format="ascii">1.018064369749025 2.558121832939007 3.795628070656118  1.163365300516769 2.607902211891847 3.814566004168331  1.029369944752563 2.726232233914455 3.800206817057172  1.023231579576074 2.729622617168813 3.865960027426981  1.157050274935273 2.607550472897475 3.878978314365631  1.011579166252618 2.555324933466658 3.860875235357743  1.017749518639427 2.733343408591981 3.932407506781606  1.151458248870237 2.60739775681565 3.943984594919316  1.005838228229706 2.552752176270976 3.926808492371163  1.012228586142033 2.736968055581434 3.999446234136049  1.145941487565078 2.607119026394114 4.009494226024104  1.000129560149382 2.550036050974194 3.993344866383726  1.006469865228256 2.740413007720365 4.067046369985685  1.14021955165681 2.606671598992393 4.075450829878416  0.9941639348855057 2.547097772204101 4.060442971504783  1.000328156505355 2.743658894096198 4.135214853253823  1.134104676819248 2.606068634707023 4.141834314361356  0.9877589906819283 2.54394304955109 4.12811347849008  0.9936097122836696 2.746662890968773 4.203961169978799  1.127394626239849 2.605356268857567 4.208668614055217  0.9806708056308252 2.540594988185886 4.196457648997789  1.415203054076853 3.170783063917907 3.74117860711092  1.363076166749801 3.040003921966899 3.782221477821357  1.512751845252476 3.042685037436229 3.794933698277688  1.50767742818564 3.060774686162001 3.857072487181711  1.358279343912989 3.057983385078952 3.84463096076686  1.409961276691116 3.194616090098876 3.801712967350987  1.503103662668155 3.079080562332861 3.919483741586785  1.354047998907601 3.076271556687965 3.907369475727268  1.405240814078973 3.218777364223847 3.862498234265572  1.498673794471949 3.097438577304317 3.982160362469655  1.349921396240385 3.094613574744929 3.970471205625133  1.400664228012379 3.24304610221955 3.923585006746772  1.494159202917089 3.115771786969856 4.045079088637481  1.345675578735825 3.112927724614543 4.033907195513039  1.396009962639953 3.267314338642799 3.984963950196379  1.489417519931305 3.134069022275256 4.108218499671167  1.341161541410202 3.131196218275753 4.097651858378842  1.391128552874285 3.291557454981959 4.04662966136745  1.484302911265542 3.152319015475922 4.171557923162681  1.336233242588926 3.149409899407583 4.16169184483311  1.385827713059778 3.315783050558288 4.108613360776077  1.39863670117844 2.899021952226087 3.818279640022923  1.393280120491287 2.911079250004823 3.881668938842076  1.388503957076871 2.923353240452959 3.945340937312517  1.38385499478389 2.935641991197696 4.009383564050207  1.379085228869409 2.947866951342625 4.073731266998758  1.374040718441 2.960019650652478 4.138320313917923  1.368601454066927 2.97210165352847 4.203060988966518  1.164239935648944 2.764574722372185 3.812617108454148  1.029019410138561 2.882794449878584 3.782989292083059  1.023487318997381 2.893340433476352 3.848534576650013  1.158151733738049 2.769860405611902 3.877378991151604  1.018529231106071 2.904336309077907 3.914626932315637  1.152726022164912 2.775422733939126 3.942661915883778  1.013533755237705 2.915306948295035 3.981319597369208  1.147328620929025 2.78091351012746 4.008486613719054  1.008355249182376 2.92615605883178 4.048567723493373  1.14172403392357 2.786266140170003 4.074779465709608  1.002890355411886 2.936844959861299 4.116348313595829  1.135754120905935 2.791465221861948 4.141489953625533  0.9969860246048976 2.947332022753162 4.184651165996282  1.129283383756106 2.796512330188026 4.208555545953035  0.9019705492425836 2.843100053045529 3.776171822523083  0.9029856350930836 2.675232681862525 3.787638145169774  0.8969325967140493 2.676090248419939 3.854571311378896  0.897024855488484 2.850744378338638 3.843419016488873  0.8915901189115529 2.677261770310955 3.922192611530792  0.8926507157203323 2.858836384720724 3.911283557935642  0.8862098162881028 2.678322158743298 3.990524168103725  0.8882017438983552 2.866902811163462 3.979826286336705  0.8805758372230889 2.679159553979043 4.059523802650148  0.883551914797191 2.874828859355635 4.049007336390706  0.8745453180559961 2.679745888520462 4.129153664538855  0.8786278457323869 2.882561486708142 4.11881784845121  0.8679867628038226 2.680036622629195 4.199372995460951  0.8733621062246602 2.890024522486793 4.189297095645277  0.6414271889628171 2.548824920937499 3.760433977841275  0.7695559504996372 2.566339298305332 3.769880103290407  0.6461178011567789 2.694302978228191 3.763173359615359  0.6408222524644492 2.695281641420331 3.833731658864129  0.7645035493543859 2.563519855265223 3.838022302961938  0.6369589564445967 2.544317035346999 3.830823731188595  0.6332713389400106 2.539997806170871 3.901899865288915  0.7602631029561622 2.560930431982929 3.907011773965275  0.6361342090529266 2.696615029348285 3.905253779550614  0.629820737435288 2.535550425833905 3.973790988341728  0.7560725925598786 2.558230628245372 3.976800145205799  0.6315821547568132 2.697794061392883 3.977602630592311  0.7515754947874567 2.555266716980161 4.047329813196275  0.6260486041613731 2.530879612115221 4.046674383441219  0.6268185774373747 2.698820363480039 4.050795713471087  0.7466930122492125 2.552014384240552 4.118648765955801  0.6218798904513971 2.525906083666547 4.120490945046879  0.6217634297978596 2.699682097403192 4.124890799247891  0.6173038593504686 2.52060278969962 4.195152709583335  0.7413342593673948 2.548416226992277 4.191046860960996  0.6164010553492494 2.700248061630283 4.19988956464586  0.9050404326323569 2.980980902250752 3.754921935950953  0.9016814869610175 2.993936468634486 3.821966361000136  0.8988067890828912 3.007426167998489 3.889689861763955  0.8959003086535479 3.020930575180786 3.958024394716537  0.8928576575716568 3.03436217223938 4.02695972284908  0.8896240954165916 3.047645982557771 4.096532653237361  0.8862166236006207 3.060724262133277 4.166905552763379  1.28186911892874 2.920543887005303 3.802488800675285  1.276147099883125 2.933556417663882 3.865910225466018  1.271043335364555 2.946894577864869 3.929825764734306  1.266029329258227 2.960239779180989 3.994159818899102  1.260857736641519 2.973505366881361 4.058884034734627  1.255381555299465 2.986681089476006 4.123978708030809  1.249437754563858 2.999798974665786 4.189456306653406  1.309886859763707 2.662441495791571 3.829226889490261  1.407367190183006 2.771978273637457 3.836670504439849  1.289368784869256 2.806214609867917 3.822759322118602  1.283356042863483 2.813753951408577 3.886770288991558  1.401516668031181 2.777024037971031 3.900614556471321  1.303251204771961 2.663741959847669 3.892993691129722  1.277980026381596 2.821559697084354 3.951327907277597  1.39624727492642 2.782235841957417 3.964922495539934  1.297263493522081 2.665173479410955 3.957210964415377  1.272678033725215 2.829321431402924 4.016308086361982  1.391092190110014 2.787427892769576 4.029562907361464  1.291411346001463 2.666552708143605 4.021834435113515  1.267208751479243 2.836978323982362 4.081658650262648  1.385812073780392 2.792530419355713 4.094492787069353  1.285425960455592 2.667815951897084 4.086800403211322  1.26141577411647 2.844528575142765 4.147349583502999  1.380250834957859 2.797547194411716 4.159676917658188  1.279130955788501 2.668979527726428 4.152064352630209  1.255144277797137 2.851961833327544 4.213333013835565  1.374261202497642 2.80248634383125 4.225090818094711  1.272301992336775 2.670048581370353 4.21761619798487  0.7738767452665462 2.717131692575266 3.773710748391784  0.7692955794896722 2.719738913959666 3.84248312668101  0.7653478878793262 2.722676038707668 3.912088443062909  0.7613383079356575 2.725520488961091 3.98243165164294  0.7570484378864267 2.728203013593877 4.053541657718164  0.7524165138331876 2.730662790794935 4.125386108689956  0.7474338033022505 2.732811576624495 4.19795689915671  1.035395025373298 2.422812686972403 3.786414865972384  1.136071245018158 2.501409568482867 3.808138197858377  1.129188914253737 2.496114446820885 3.872286002817947  1.029053207615244 2.414559287561829 3.850887309636341  1.122972462417839 2.490914097476612 3.937059296426272  1.023461934989335 2.406398596464305 3.915998771253746  1.116823586649951 2.485571638378055 4.002346557188425  1.017916062059912 2.398004288734579 3.98169807125058  1.11045429430675 2.480044974089011 4.068086876992754  1.012120432266307 2.389381554990909 4.047914827843247  1.103672552782728 2.474349929334062 4.134235988062931  1.00588821028664 2.380569624546396 4.114618083863811  1.096302368471002 2.46849597318061 4.200707769645732  0.9990064762554483 2.371583094476017 4.181778755404903  0.5313774608817222 2.588522817379542 3.753429947617837  0.5249612673223071 2.586387826887815 3.825819953461983  0.5191951493889402 2.584428113344195 3.898983802606973  0.5138032959962916 2.582442569140374 3.972981823600637  0.5083344710219966 2.580171892035453 4.047903486078225  0.5025980005617561 2.577777843805872 4.123803779441785  0.4964230345020385 2.575247128320565 4.200706256730732  0.7807991165560793 2.957777046202644 3.75373444009126  0.7776423115576366 2.968547176464244 3.823151688927644  0.7748786020983387 2.979768546024719 3.893196850400905  0.7720185834375605 2.99099727420729 3.963929861522522  0.7690400640934084 3.002166165517016 4.03533854650941  0.7659246472551096 3.013199171057345 4.107426458923547  0.7626814304665656 3.023953485099773 4.18020092464999  0.7753432311091997 3.093108420654882 3.72931793033629  0.7741444611394626 3.110918499028666 3.798507139200509  0.7732773187228041 3.129200978235072 3.868259282715722  0.772320349871871 3.147511926358838 3.938654939865896  0.7713045312671517 3.165829309653225 4.009671118235658  0.7701897775078536 3.184040240808786 4.081322462250952  0.769083612737623 3.20207386967188 4.153553888606143  0.9121167572488811 2.439774996435875 3.775397943455332  0.9064108698413431 2.433036626681398 3.841332863208736  0.9015037689602
[...]
<PointData  Vectors="f_16"> 
<DataArray  type="Float64"  Name="f_16"  NumberOfComponents="3" format="ascii">5.6797150153417249e-02 3.6056736369284040e-02 2.5619358095995616e-02  5.5047081800104501e-02 3.5470660922759037e-02 2.7572302512839573e-02  5.7364090889658201e-02 3.8057598608877224e-02 2.9786353639951840e-02  5.6958003191731853e-02 3.6352506938999454e-02 2.9761155313592899e-02  5.4592169701758148e-02 3.3927049486616838e-02 2.7465476319024039e-02  5.6212682798082343e-02 3.4586549556952624e-02 2.5443571915335691e-02  5.6298775435858803e-02 3.4880107801600453e-02 2.9774790013790662e-02  5.3925886255544210e-02 3.2466174006319438e-02 2.7398953259409962e-02  5.5494804364146506e-02 3.3089767652225675e-02 2.5302734636529305e-02  5.5697301932448075e-02 3.3395640042283972e-02 2.9795970253765569e-02  5.3332016899530862e-02 3.0976118230098555e-02 2.7338137534270640e-02  5.4855011443923352e-02 3.1542901866019574e-02 2.5164748358893964e-02  5.5162154614234210e-02 3.1906076717747256e-02 2.9819600882973449e-02  5.2811401134853525e-02 2.9494329902570830e-02 2.7278847849714658e-02  5.4289417633201879e-02 2.9984762286412000e-02 2.5025926290923095e-02  5.4706212671072882e-02 3.0430304836170059e-02 2.9842950470085599e-02  5.2396878499678161e-02 2.8048167946321940e-02 2.7220462832922593e-02  5.3824556441843550e-02 2.8446716553899198e-02 2.4885888517103084e-02  5.4400928480330957e-02 2.8946288079968182e-02 2.9860799897966240e-02  5.2166107106165642e-02 2.6615919042347350e-02 2.7160290031512595e-02  5.3512336642324895e-02 2.6942750406164836e-02 2.4741039066031680e-02  5.3680023701602922e-02 4.5429964132325168e-02 3.7388194573921896e-02  5.3983332064441836e-02 4.2036440414529169e-02 3.5867903456915436e-02  5.1990424861072672e-02 4.1231632772503295e-02 3.6122472984567347e-02  5.2005423026553095e-02 3.8984916926330493e-02 3.6292561048191029e-02  5.4012582928483543e-02 3.9875765153497812e-02 3.6028775032976648e-02  5.3666660022348253e-02 4.3168538580508675e-02 3.7592021309439269e-02  5.2099315926302306e-02 3.7108808555823110e-02 3.6477135930514312e-02  5.4040299109536560e-02 3.8034815980979811e-02 3.6203752754372792e-02  5.3859339046482969e-02 4.1199943418671010e-02 3.7804241070090346e-02  5.1994034665897471e-02 3.5488560586270548e-02 3.6668990193757918e-02  5.3848150127711859e-02 3.6468564331297658e-02 3.6385815524894498e-02  5.4003750030686797e-02 3.9445625364038325e-02 3.8019849474607931e-02  5.1755915136651141e-02 3.4061616040719646e-02 3.6872135781392722e-02  5.3527022120735998e-02 3.5089673368013670e-02 3.6578778154416229e-02  5.3992151795135862e-02 3.7898898705633496e-02 3.8240261279214330e-02  5.1512759585736756e-02 3.2741077176232272e-02 3.7083290798213819e-02  5.3214881171699646e-02 3.3792279222062904e-02 3.6775197928362306e-02  5.3872077250235399e-02 3.6531034537993362e-02 3.8464982731327112e-02  5.1362445504913389e-02 3.1458766083134970e-02 3.7292687567733428e-02  5.2995972274189236e-02 3.2503572075978877e-02 3.6968524152200942e-02  5.3728037185505451e-02 3.5280052136995470e-02 3.8691158084671030e-02  5.2956648776243932e-02 3.8640857301533590e-02 3.4007617056512826e-02  5.2977753047538448e-02 3.6550473916486338e-02 3.4125133485113084e-02  5.2748548691531845e-02 3.4894156019657063e-02 3.4253376640712555e-02  5.2305701886948101e-02 3.3490235522192498e-02 3.4403336620490534e-02  5.1904733229886930e-02 3.2125715889189020e-02 3.4575479265957734e-02  5.1624341072359484e-02 3.0770761851345547e-02 3.4738096256989315e-02  5.1471517405122263e-02 2.9449529901085951e-02 3.4891042939141838e-02  5.5670614733734310e-02 3.7705942868028496e-02 3.1078617574707409e-02  5.7906525686839093e-02 4.0662454805245933e-02 3.2752315347610729e-02  5.7751177324162774e-02 3.8733321459908404e-02 3.2846499816043088e-02  5.5415259770615004e-02 3.5903782720907967e-02 3.1090502708438661e-02  5.7293572757077783e-02 3.7190035147237059e-02 3.2957746104006209e-02  5.4825409230861294e-02 3.4438045024056348e-02 3.1138910832042826e-02  5.6752173724363891e-02 3.5789597826768049e-02 3.3084809958818635e-02  5.4271926603081978e-02 3.2976229017230504e-02 3.1199421735264302e-02  5.6274628927617858e-02 3.4394751434865797e-02 3.3215525678998943e-02  5.3780460152686518e-02 3.1525255072647994e-02 3.1260162819949651e-02  5.5861765045022625e-02 3.3006063044232703e-02 3.3346587974242226e-02  5.3383129309186733e-02 3.0098584621815090e-02 3.1320791016444569e-02  5.5545293721223049e-02 3.1578018925897462e-02 3.3473397144612442e-02  5.3153126313880687e-02 2.8672289877441526e-02 3.1380480375277631e-02  5.9433585066893793e-02 4.0669255918043601e-02 3.1569820727012213e-02  5.8807928827820509e-02 3.8290674332394178e-02 2.8061401480353323e-02  5.8241458355121858e-02 3.6669448513567418e-02 2.7978707979974950e-02  5.9119222544244433e-02 3.8820992718151669e-02 3.1618010989630178e-02  5.7513257196443360e-02 3.5177776691619811e-02 2.7941039632858933e-02  5.8519440223825658e-02 3.7328778218136349e-02 3.1697358748025463e-02  5.6886729318311104e-02 3.3637722974554897e-02 2.7904813279682455e-02  5.7933149592290532e-02 3.5884891559781834e-02 3.1791035013838710e-02  5.6327107973634515e-02 3.2083570512391572e-02 2.7868348253985209e-02  5.7420725038027184e-02 3.4443385252614256e-02 3.1885426931720300e-02  5.5841304000625959e-02 3.0525801985673669e-02 2.7832132356548914e-02  5.6970492161496328e-02 3.3003461392980778e-02 3.1980784967412051e-02  5.5464389893126680e-02 2.8974742348312765e-02 2.7789009350736665e-02  5.6592395243327237e-02 3.1512419765379857e-02 3.2070602387518403e-02  6.1106897758241373e-02 3.9093691696279360e-02 2.3255847648180027e-02  5.9913162365210319e-02 3.8226959154722878e-02 2.4515763355167964e-02  6.1832198916379082e-02 4.0273846076552149e-02 2.7188478758588062e-02  6.1135889514111988e-02 3.8656925753964663e-02 2.7112986894079153e-02  5.9174759843603486e-02 3.6676511805398847e-02 2.4341919014301786e-02  6.0340232987128081e-02 3.7450492888648157e-02 2.3028973791228393e-02  5.9586889479692609e-02 3.5780177502046269e-02 2.2826978069751407e-02  5.8418819410879813e-02 3.5084136465261352e-02 2.4195330237219856e-02  6.0413719135247665e-02 3.7095056563651099e-02 2.7068126356590352e-02  5.8929431629992264e-02 3.4057525251045578e-02 2.2630541799040324e-02  5.7747357084405843e-02 3.3450260211146651e-02 2.4054387884045878e-02  5.9794626386432848e-02 3.5497019178594186e-02 2.7028928129048103e-02  5.7165927631629671e-02 3.1775210693562303e-02 2.3913161220633868e-02  5.8376656093682200e-02 3.2283973963167248e-02 2.2434989241482541e-02  5.9283475459452381e-02 3.3871250829566296e-02 2.6994827466270181e-02  5.6670169616532019e-02 3.0067523353480733e-02 2.3769811794684695e-02  5.7913443634035847e-02 3.0459830268480599e-02 2.2235704486890259e-02  5.8855544957644432e-02 3.2211024981151033e-02 2.6965308442233202e-02  5.7487225564826196e-02 2.8628434852837403e-02 2.2027450187163677e-02  5.6255175616358212e-02 2.8376637036873566e-02 2.3616650839108824e-02  5.8418583102422157e-02 3.0525128360792658e-02 2.6929680500442851e-02  5.9743642871951746e-02 4.3059881696648962e-02 3.3775201095368461e-02  5.9599341732274942e-02 4.1052726547465987e-02 3.3886714906406913e-02  5.9252012903465684e-02 3.9384953581855453e-02 3.4010531273252001e-02  5.8728041972949133e-02 3.7973054260471088e-02 3.4147858446179062e-02  5.8252785462724936e-02 3.6605544431330163e-02 3.4290502855022297e-02  5.7851256276945172e-02 3.5249163339071896e-02 3.4434433529068748e-02  5.7511887294470460e-02 3.3851759958733602e-02 3.4575084378577731e-02  5.4640352622457429e-02 3.9862313921305931e-02 3.4098331396120778e-02  5.4638879282697977e-02 3.7818335564728654e-02 3.4220638454942991e-02  5.4407756560697983e-02 3.6151877155506836e-02 3.4360942847243635e-02  5.3969832640840487e-02 3.4738587360362200e-02 3.4515857034965278e-02  5.3538358387898922e-02 3.3384261137058710e-02 3.4675758287183452e-02  5.3199115344220317e-02 3.2040243549103245e-02 3.4833563136608535e-02  5.2984711765741238e-02 3.0698845924244943e-02 3.4988663126532975e-02  5.3217104490042827e-02 3.5159484081475477e-02 2.9374481267900373e-02  5.2311575678528580e-02 3.6118637955425893e-02 3.1869809244296665e-02  5.4096105396568860e-02 3.7519970145225276e-02 3.2227338561622812e-02  5.3970208636737169e-02 3.5614386287806381e-02 3.2286234259047038e-02  5.2206382904251537e-02 3.4200237461958556e-02 3.1876641259037580e-02  5.2946236019520726e-02 3.3476393364435600e-02 2.9307951231141639e-02  5.3495186232999814e-02 3.4110683115425838e-02 3.2366720416503937e-02  5.1734112679182272e-02 3.2682600557843042e-02 3.1922586984593757e-02  5.2348096521569527e-02 3.2033248635678364e-02 2.9282521003091245e-02  5.2980651073484097e-02 3.2686790490704588e-02 3.2469406544098765e-02  5.1239536559149590e-02 3.1254630796838025e-02 3.1979832588859218e-02  5.1822333515064614e-02 3.0578713034043158e-02 2.9266131238428899e-02  5.2541129889157955e-02 3.1273523412353885e-02 3.2567967754572678e-02  5.0833619627289293e-02 2.9839283971627148e-02 3.2042490875598982e-02  5.1369508926533407e-02 2.9143212934528814e-02 2.9252848366774619e-02  5.2210053513438444e-02 2.9887371680641189e-02 3.2666470199122652e-02  5.0551748614494692e-02 2.8456143426937933e-02 3.2107144169077680e-02  5.1032223879067286e-02 2.7742939877905687e-02 2.9241978287961226e-02  5.2038259136357810e-02 2.8517215590196536e-02 3.2766403391288772e-02  5.0436369696885468e-02 2.7099723846746412e-02 3.2175017951256164e-02  5.0876691596294571e-02 2.6355406236644802e-02 2.9232475392857189e-02  6.0534437172094273e-02 3.9691354856633894e-02 2.8401829140252213e-02  5.9934097935049717e-02 3.8028152870233617e-02 2.8365888652071371e-02  5.9201550149592184e-02 3.6521980814571808e-02 2.8363217954720094e-02  5.8566483319129795e-02 3.4979500207654175e-02 2.8367847812372136e-02  5.8021134092944737e-02 3.3417041757080573e-02 2.8376452203877571e-02  5.7546094563090087e-02 3.1836099484233556e-02 2.8387716898503137e-02  5.7110005997769220e-02 3.0229510070619081e-02 2.8393535580431267e-02  5.5865492494038667e-02 3.4459975797808066e-02 2.1660015362327940e-02  5.4897055666532364e-02 3.4334343502570336e-02 2.4580727899090739e-02  5.4324624651891792e-02 3.2955136991263782e-02 2.4331521020591076e-02  5.5208268696104040e-02 3.3141887124939783e-02 2.1311668750640316e-02  5.3654948856811373e-02 3.1467733179573305e-02 2.4113906765262028e-02  5.4507793959786915e-02 3.1640913433707334e-02 2.0978004876110172e-02  5.3043697612621586e-02 2.9943984919980331e-02 2.3898120028485632e-02  5.3848875948572600e-02 3.0065572096640486e-02 2.0642353237646481e-02  5.2509546356044955e-02 2.8420163644542813e-02 2.3681804245044510e-02  5.3275213590836021e-02 2.8466199831321825e-02 2.0302135248997565e-02  5.2082834645507683e-02 2.6928604310841493e-02 2.3464855458378408e-02  5.2811389542619103e-02 2.6878670215523592e-02 1.9958754453378073e-02  5.1822521639296085e-02 2.5464838361872820e-02 2.3244507477623591e-02  5.2493847328705281e-02 2.5331525749853478e-02 1.9610358314181078e-02  6.2345667498500582e-02 4.0269750239864392e-02 2.3761573802384733e-02  6.1613211465785508e-02 3.8597161779595844e-02 2.3591860569129552e-02  6.0916927799923151e-02 3.6916175157381187e-02 2.3446846927924460e-02  6.0332346652894039e-02 3.5192984583878199e-02 2.3312597452858526e-02  5.9868090911834537e-02 3.3424842913842796e-02 2.3179927824428632e-02  5.9501359978653988e-02 3.1605914517259172e-02 2.3051759275210061e-02  5.9126240686908853e-02 2.9748055065733716e-02 2.2923712049944232e-02  6.1206302086884989e-02 4.2961772225593005e-02 3.2932198243278005e-02  6.0930452548388997e-02 4.1039101986175643e-02 3.3016513909425865e-02  6.0425520909910359e-02 3.9458933571871468e-02 3.3116000523446557e-02  5.9858028405122124e-02 3.8031095229618277e-02 3.3232684472503493e-02  5.9370260034229565e-02 3.6628765024954130e-02 3.3352903722052456e-02  5.8960351644448059e-02 3.5233085638204292e-02 3.3475247126645263e-02  5.8602960611077524e-02 3.3794231968315804e-02 3.3594151012354655e-02  6.1462231437267180e-02 4.5374310028975975e-02 3.4625807844725680e-02  6.1321191461113631e-02 4.3327547941569226e-02 3.4765957398799348e-02  6.1077103999033572e-02 4.1582438837420452e-02 3.4917084199600705e-02  6.0624940095124917e-02 4.0138236871732597e-02 3.5072911241163997e-02  6.0178123519399634e-02 3.8811754038633510e-02 3.5236144699197704e-02  5.9818197401995440e-02 3.7519423405232226e-02 3.5400054359888779e-02  5.9531297457975418e-02 3.6223039808207277e-02 3.5561439890136097e-02  5.7526586876484626e-02 3.5796897107788168e-02 2.1501024921599415e-02  5.6812743280143775e-02 3.4395967635035211e-02 2.1193732412588578e-02  5.6080611936354108e-02 3.2834789778766998e-02 2.0905288931081421e-02  5.5398387760736641e-02 3.1207138320911886e-02 2.0618940075475621e-02  5.4805165388330933e-02 2.9540957064359250e-02 2.0326125540346372e-02  5.4324583484700172e-02 2.7874173921482233e-02 2.0027083594179058e-02  5.3986845992208973e-02 2.6248278729394246e-02 1.9723422209516821e-02  5.6910346403721182e-02 3.4911180906933667e-02 1.7261743747397040e-02  5.6153300615107433e-02 3.3605374061992710e-02 1.6729951849073301e-02  5.5460288552535354e-02 3.2061733737217657e-02 1.6198629389444014e-02  5.4776124199066745e-02 3.0404543465735585e-02 1.5659513465699746e-02  5.4177341461387973e-02 2.8689082254367036e-02 1.5109360165287335e-02  5.3696372980676914e-02 2.6947341586612401e-02 1.4547528916736897e-02  5.3356485090274505e-02 2.5229828715047520e-02 1.3973870454362500e-02  5.3009498517913221e-02 3.3148293374319550e-02 2.5169185706424665e-02  5.2534446315986832e-02 3.1817895496747628e-02 2.4926072677702162e-02  5.1906971672238483e-02 3.0354765639785022e-02 2.4715721968330561e-02  5.1338642246421463e-02 2.8865818901676471e-02 2.4509575147088045e-02  5.0847250754140018e-02 2.7393198903095297e-02 2.4304282196513018e-02  5.0468325808898658e-02 2.5958825922338093e-02 2.4099585683616320e-02  5.0270254905397341e-02 2.4533209063008047e-02 2.3895133460932427e-02  6.2872611850803187e-02 4.5177202787899100e-02 3.3878917125787548e-02  6.2636434149966322e-02 4.3199607753417128e-02 3.3979739428359385e-02  6.2253648849807587e-02 4.1529130219901830e-02 3.4090661841823439e-02  6.1737578895625353e-02 4.0099265266743102e-02 3.4216159138019925e-02  6.1288052901262519e-02 3.8746055243161950e-02 3.4347360546326207e-02  6.0948470961820211e-02 3.7414659402827351e-02 3.4480460804741091e-02  6.0678603517281923e-02 3.6087884277187295e-02 3.4613189760005575e-02  6.5764948456783226e-02 4.7691098773687157e-02 3.3893170484941268e-02  6.5500390262977243e-02 4.5438893332970527e-02 3.2481965478617557e-02  6.4557406477935148e-02 4.7565971147021990e-02 3.4349322310027131e-02  6.4304859295321815e-02 4.5473868970997332e-02 3.4476713809032007e-02  6.4967985765420663e-02 4.3595014711480390e-02 3.2571726549683565e-02  6.5375973398945561e-02 4.5636527428175651e-02 3.4026794578998425e-02  6.3990321324892740e-02 4.3682027680634838e-02 3.4612394009833417e-02  6.4342833756240156e-02 4.1985398687208582e-02 3.2668430495252074e-02  6.4917561979842664e-02 4.3850431735278451e-02 3.4161737515845225e-02  6.3518326405358760e-02 4.2163365681623745e-02 3.4753821791714261e-02  6.3739475412245297e-02 4.0501725923803709e-02 3.2781752560211631e-02  6.4344305675439403e-02 4.2321224704925747e-02 3.4306376589824758e-02  6.3032893342724772e-02 4.0821418158358602e-02 3.4899690692491367e-02  6.3306009621139012e-02 3.9040562805112172e-02 3.2899292944890725e-02  6.3831271001041745e-02 4.0929072520937387e-02 3.4457782232723999e-02  6.2688798524785622e-02 3.9527867225188903e-02 3.5049895318589472e-02  6.3011657342904717e-02 3.7618028866341788e-02 3.3021652259707393e-02  6.3476025428233579e-02 3.9593427866458142e-02 3.4614294779580335e-02  6.2446815381170348e-02 3.8286573581692664e-02 3.5197738778937969e-02  6.2769829598295232e-02 3.6266042123392371e-02 3.3152087988946415e-02  6.3228300631525472e-02 3.8324865946852769e-02 3.4774222436888290e-02  5.6170228983803604e-02 4.0188575098664976e-02 3.3432002720155216e-02  5.6109388336542144e-02 3.8200422690349116e-02 3.3540623743537272e-02  5.5768064563466217e-02 3.6589404981144963e-02 3.3662147856102963e-02  5.5268674879985415e-02 3.5190098927584117e-02 3.3798695641030163e-02  5.4809124118275987e-02 3.3814809493176945e-02 3.3938094143972204e-02  5.4430317168436729e-02 3.2445284045715950e-02 3.4077457363577188e-02  5.4165207682901603e-02 3.1061263803001234e-02 3.4213907923955587e-02  5.0591209425247939e-02 3.3505555833138474e-02 3.2371580260997901e-02  5.1347847965397167e-02 3.6163971654737906e-02 3.4696110896876298e-02  5.0212446222837201e-02 3.1972482332389383e-02 3.2452642238081447e-02  5.1224944368001325e-02 3.4438852164483516e-02 3.4835276531846086e-02  4.9772193932834823e-02 3.0583942921485998e-02 3.2547171546220353e-02  5.0899453784062687e-02 3.2970162218169931e-02 3.4994176355079475e-02  4.9436274960057029e-02 2.9201580737330160e-02 3.2644542565813145e-02  5.0556459564716640e-02 3.1608906892252674e-02 3.5169797649909830e-02  4.9225359468729565e-02 2.7853286051007883e-02 3.2745181633613354e-02  5.0325502834580316e-02 3.0275075095820517e-02 3.5342651168690301e-02  5.5785954488679818e-02 4.9207029743573535e-02 3.7942726626359551e-02  5.4201904709751642e-02 4.9400555067737356e-02 3.8483334273165477e-02  5.6010795285528298e-02 5.3178839781424563e-02 3.8796911793968082e-02  5.5863256777677735e-02 5.0889528510278746e-02 3.9033276285123361e-02  5.4112736998761853e-02 4.7111858888756658e-02 3.8714093647236665e-02  5.5712162637564913e-02 4.6951728014800555e-02 3.8148241459511401e-02  5.5895385404546090e-02 4.8828465232106925e-02 3.9286100867456306e-02  5.4241824082249535e-02 4.5088285348793666e-02 3.8959600447645119e-02  5.5846382568630656e-02 4.4937332148938997e-02 3.8367238188864804e-02  5.6092717022386031e-02 4.6964447623181430e-02 3.9552932847857880e-02  5.4493542162432212e-02 4.3256398458392527e-02 3.9216542833725242e-02  5.6062623220880625e-02 4.3105006015708713e-02 3.8592138314261233e-02  5.6323626204437580e-02 4.5195394197436269e-02 3.9865672993421176e-02  5.4733163852504672e-02 4.1541311475359555e-02 3.9481686973903786e-02  5.6198960721295599e-02 4.1450619605952956e-02 3.8817928233983529e-02  5.6513209337806861e-02 4.3490532074461082e-02 4.0269183808693619e-02  5.4880183564949038e-02 3.9956935580016575e-02 3.9785744462294687e-02  5.6205282803788691e-02 3.9989298149237462e-02 3.9063854494798669e-02  5.6675198979410139e-02 4.1946285367385178e-02 4.0763675421311832e-02  5.4976289376818387e-02 3.8581405390570207e-02 4.0120845993647271e-02  5.6141900171081172e-02 3.8723342493681465e-02 3.9322733777916355e-02  6.0829298417550824e-02 3.8943092683629756e-02 1.4539928670880733e-02  6.0349392669629624e-02 3.8264801551606699e-02 1.9816491058181698e-02  6.1613118899988779e-02 3.9526895353839180e-02 1.9297847115132796e-02  6.0826634649249645e-02 3.7819641517453262e-02 1.8922662630323495e-02  5.9554093276402015e-02 3.6645514467436600e-02 1.9440473164737484e-02  5.9985562431390575e-02 3.7220507335407667e-02 1.3871692277200868e-02  6.0096944276425195e-02 3.6043998635652212e-02 1.8553655677729663e-02  5.8790673401502257e-02 3.4932777888999650e-02 1.9073743724297675e-02  5.9234784481490062e-02 3.5385529444540785e-02 1.3202006206489279e-02  5.9459101255069056e-02 3.4202934913051548e-02 1.8190705945422096e-02  5.8106531532942367e-02 3.3151548591926365e-02 1.8710768436788597e-02  5.8547050901522471e-02 3.3462453966130908e-02 1.2527683032244370e-02  5.8938094730614038e-02 3.2299973814898186e-02 1.7836357528571937e-02  5.7521930178677898e-02 3.1307331127159520e-02 1.8342379434339390e-02  5.7966735940912985e-02 3.1457766594545231e-02 1.1846645716700743e-02  5.8526871589900692e-02 3.0325740257733515e-02 1.7470339310470932e-02  5.7042181612130927e-02 2.9407566356115220e-02 1.7962500943874533e-02  5.7503479507360442e-02 2.9363376474507905e-02 1.1142108596178875e-02  5.8175893574769447e-02 2.8304182201383997e-02 1.7090444015300920e-02  5.6668483004261416e-02 2.7518353278104354e-02 1.7570530898316672e-02  5.7177581724951555e-02 2.7225949661865034e-02 1.0412981994233008e-02  6.3044755399392027e-02 4.7680585243552738e-02 3.5044284712764572e-02  6.1584287270