<?xml version="1.0"?>
<VTKFile type="UnstructuredGrid"  version="0.1"  >
<UnstructuredGrid>
<Piece  NumberOfPoints="966" NumberOfCells="4153">
<Points>
<DataArray  type="Float64"  NumberOfComponents="3"  format="ascii">10.07384440300009 2.867652484362122 0.9988838334446792  9.93931560719645 2.815101466761392 1.051050733987825  9.972738172891157 2.934112266050224 0.9668503211896008  9.966072047269039 2.901635181611891 0.9128863177250769  9.934516069071915 2.781267878291238 1.001625738178947  10.06696030311994 2.833465962994294 0.9481019443133691  9.959425842429894 2.868856994805843 0.8590909179282473  9.929711494901305 2.747144366367842 0.9524412765447831  10.06008245655884 2.799001357269962 0.8975152002216805  9.95278325559406 2.835976620972172 0.8053732376148013  9.92490258874807 2.712907453786039 0.9033980831585973  10.0532050958024 2.764435935544013 0.8470299281852292  9.946129900526962 2.803116658790247 0.7516709527348717  9.920096470145698 2.678690890365685 0.8544063500451768  10.04632293512113 2.729890198317852 0.7965732375092558  9.939460190019917 2.770381152397388 0.6979083909238133  9.915300380269773 2.644616220544734 0.8053699015624201  10.03943943288159 2.695470892622834 0.7460583757039911  9.932749269500627 2.737852492527875 0.6439964423955952  9.910498489260396 2.610823167979525 0.7561635029332682  10.03251298238264 2.661270348854075 0.6953791571812216  10.19481257844674 2.809744342929746 1.020059488659643  10.15905506026988 2.725910017353736 1.085969805678843  10.05865846271482 2.76875844033121 1.067307503553064  10.05230722486923 2.734536464381002 1.019447774305598  10.15215520606293 2.691722562562689 1.039282604755108  10.18704876176698 2.77549394396123 0.9710205221928658  10.17927667814061 2.74102517403932 0.9221715315242937  10.14519964635995 2.657340109751457 0.9928195201822815  10.04593226164397 2.700080936157511 0.9718503759113888  10.17149678397162 2.70648272971731 0.8734226161829463  10.13822185348719 2.622890647071942 0.9464852057275117  10.03954387099833 2.665540875678467 0.9243889231146067  10.16372059100857 2.671966077661929 0.8247024320384952  10.13125721826391 2.588473138305201 0.9002038963499813  10.03316243897813 2.631034999094767 0.8769826539289877  10.15595557448229 2.637565012038036 0.7759339496605262  10.12434327570744 2.554191461664758 0.8538973746812526  10.02680985131729 2.596685348541171 0.829547289879725  10.14813240564908 2.603351290648383 0.7270376586068112  10.11745106892918 2.52015603588801 0.8074680551068063  10.02047886917021 2.56262459557945 0.781952467111882  9.350511439924658 3.162138770013453 0.8966186477687174  9.26965448208697 3.081672899924245 0.9191460833001595  9.263271739308633 3.238084433147525 0.8763435746775989  9.262872140308993 3.22601070431736 0.8051752274675313  9.271622758159587 3.060384006489111 0.8535791692480279  9.351187253587479 3.142651685476552 0.8292522679299522  9.26240853776925 3.213751180117589 0.733913560642102  9.273534846636771 3.038804546815204 0.7880334926727247  9.351807290098886 3.122882712186131 0.7618336724784768  9.261935947569997 3.20142038253765 0.6626000649462945  9.275432567309071 3.017092491956594 0.7224935656959957  9.35241632091868 3.103007129545416 0.6943829097834149  9.261493536319891 3.189077763420605 0.5912471214181007  9.277347716704959 2.995366508777518 0.6569394984423224  9.353051844496871 3.083132123176804 0.6269018665447744  9.261094845013268 3.176728999697758 0.5198536553581996  9.279296049802248 2.973695287403544 0.5913461455316951  9.353724886925367 3.063300209020748 0.5593783481323974  9.260764262830198 3.164364157280502 0.4484232670932624  9.281270745017054 2.952107981440859 0.5256783448076479  9.354456063229101 3.043507255540911 0.4917708227661201  9.080237711021361 2.893522927711913 1.005355680057042  9.000711149869074 2.83767445648032 1.037110542082258  9.00257713282733 2.949979667718978 0.9715234459800299  9.003738622348529 2.917445577691455 0.9131358420170691  9.001778035516782 2.802820622614381 0.9838453316914378  9.081144789381318 2.86045819393353 0.9492955683396157  9.08199722560939 2.827090334808742 0.8934280906023784  9.002809496475955 2.767707440580363 0.9308092620318847  9.00483688066152 2.884612512838711 0.8549033258405183  9.082812674231189 2.793595619573789 0.8376800395471681  9.003794465369024 2.73247061508124 0.8779307273165275  9.005898949728728 2.85165501749769 0.7967643709005591  9.083618248901201 2.760115805064863 0.7819844117171799  9.004752948517082 2.697252218387885 0.8251382351072292  9.006952612769849 2.818706249407749 0.7386751878168047  9.084451090602613 2.726760354965029 0.7262646939947003  9.008043840628719 2.785865873367932 0.6805762647790377  9.257879442574032 3.591159013944347 0.9030199296974351  9.266733287971041 3.497763852283948 0.877850130551697  9.146965131682423 3.500911066242058 0.8746005811692209  9.145845883275847 3.515332408103231 0.7995290042308756  9.269189491781457 3.508897321559913 0.8031180492487491  9.276087197668318 3.542335330581436 0.5782358056846384  9.256698162700216 3.673786383518599 0.6086226631729904  9.142159012423269 3.558658635240415 0.5737136815177279  9.143357317738964 3.544271367389051 0.6490791275963017  9.273768396372759 3.531236871130363 0.6533002951650895  9.256462608252876 3.69433723064919 0.5347664854371642  9.278501793026091 3.553343777532971 0.5030679345137707  9.14104506416871 3.572954830101217 0.49825413921107  9.256372460247624 3.714752355572168 0.4608331243106355  9.281101723235663 3.564249505208751 0.4278064295203984  9.140038679461398 3.587140248174871 0.4227158892209166  9.160170747239473 3.173109795920301 0.8907192016801886  9.163220849219673 3.158062961420822 0.8210537501547105  9.166214666111349 3.142762908410091 0.7513239881783267  9.169204001506944 3.127357181335034 0.6815664716145735  9.172228023206156 3.111936307163047 0.6117863718297508  9.175302701761087 3.096529715685377 0.5419742454869846  9.17843724107205 3.081132991820814 0.4721056232457567  9.133853566717406 3.742245173393607 0.6269837940528757  9.139270072511929 3.714828561206808 0.6992384443686697  9.128491505056788 3.769551088386543 0.5546325720877358  9.85185774129512 2.911757460360321 0.9939006603498605  9.847175327759908 2.879312249476642 0.9403954907264164  9.842498638695352 2.846546464394858 0.8870856532570887  9.837822860456761 2.813660094346977 0.8338745668729011  9.833141729845511 2.780791900521159 0.7806878891071518  9.828453310092838 2.748060318815519 0.7274449662327792  9.823752883394334 2.71556920362365 0.6740362605121265  9.847695615739813 2.727875111028909 1.11629520946713  9.702545002656825 2.790691499961276 1.080929238554814  9.818649464927089 2.826472518961221 1.051640428255898  9.815683624432513 2.793010056066469 1.001335639490827  9.700927523734594 2.757372995871647 1.031474393310399  9.845066466495563 2.694233333241985 1.069071243638798  9.812722381100185 2.759248040099919 0.9512890953324004  9.699315029833844 2.723760887413524 0.9822867652456457  9.842438869343168 2.660327690481051 1.022130500479531  9.80976301371825 2.725368784406286 0.9013878189975402  9.697704182304063 2.690030144119397 0.9332624432303274  9.839808760660933 2.626325958130546 0.9753666695272787  9.806806195947354 2.691514014777515 0.8515403338351936  9.696094762244559 2.656327625320703 0.8843051395934466  9.837187388156787 2.592365385238431 0.9286869473454841  9.803853587865341 2.657813666128577 0.8016500291869924  9.694485744978085 2.622790203920719 0.8353137609429636  9.834588459623598 2.558586582556873 0.8819939279308822  9.800883284500777 2.624406215250466 0.7515936791857923  9.692861928863529 2.589563617169488 0.7861644461718198  9.831983165156368 2.525147728811515 0.8351411432729851  9.466849198711449 2.578449723478639 1.230080434889293  9.355730603647537 2.546041600320267 1.250125225656905  9.418364833536177 2.652557687398792 1.176123933844778  9.419091734619204 2.619069819993297 1.129841456526107  9.356562913478541 2.51483043613526 1.204792538600141  9.467630978199917 2.546619642348887 1.18489352875721  9.419816063057526 2.585349640896604 1.083857637125432  9.35742362742322 2.483484375189541 1.159734510831088  9.468427599943173 2.514589483159476 1.139988217698223  9.420519489880126 2.551527269025766 1.038086908100783  9.358247374330997 2.452044765036721 1.114915927136846  9.469197479048869 2.482460412246461 1.095311801559923  9.421209352083586 2.517749519969346 0.992439510780298  9.359045264998674 2.420638358099793 1.070265525796408  9.469950848785535 2.45037133707343 1.050784694148836  9.42189790415885 2.484170737618682 0.9468039327809619  9.359848480483215 2.389425682718346 1.025686199396019  9.470703707350436 2.41847593805862 1.006304121815004  9.422580538183462 2.450956880694304 0.9010186978195266  9.360674223852151 2.358621322603519 0.9810214633753767  9.471445695185253 2.386975321054052 0.9617199036218199  10.16911179495576 2.896078986190219 0.9657255348985637  10.1611579758216 2.861645172953466 0.9142827472438497  10.15323102580535 2.826955279815269 0.8629897767030401  10.14531242434632 2.79218165614691 0.8117665866157199  10.13738378931533 2.757425834935403 0.7605597446770562  10.12942492818859 2.722763476676497 0.7092985953683225  10.12137298558559 2.688266854890169 0.6578843684760189  9.742920044118408 2.678218392577612 1.157415694315561  9.741494298258445 2.644909142970767 1.111370612533811  9.740076835306542 2.611348209615262 1.065628387926166  9.738656494682528 2.577692651003504 1.020084251648944  9.73723959967943 2.544081694430429 0.9746456610364885  9.735836760113202 2.510663076892862 0.9292082536873212  9.734435353382217 2.477610706915257 0.8836186249809862  9.309401897572878 2.643897165195396 1.180658337495722  9.310210978895581 2.610491935443497 1.134128388576574  9.311013093542249 2.57687528279427 1.087892606451222  9.31177761187015 2.543147885029733 1.04187828692542  9.312520638225898 2.509458662448447 0.9959977129169658  9.313268128523308 2.475964335322759 0.9501370727925305  9.314044500998317 2.442834221587371 0.9041294992976986  9.60952096140
[...]
<PointData  Vectors="f_16"> 
<DataArray  type="Float64"  Name="f_16"  NumberOfComponents="3" format="ascii">-5.1976172906615617e-02 -4.4101394265916569e-02 -4.6255568381283141e-02  -4.9364322769271128e-02 -4.7824685429953710e-02 -4.6947246619200286e-02  -4.9933278199739251e-02 -4.0084142430314183e-02 -4.1621839126363129e-02  -5.0871331644727652e-02 -3.6328337147092500e-02 -4.3000649656702264e-02  -5.0189514656692656e-02 -4.4697962231360057e-02 -4.8643025812047581e-02  -5.2788718007096537e-02 -4.0711434964583716e-02 -4.7839857232168354e-02  -5.1506642829139360e-02 -3.2847829662541697e-02 -4.4375157592480161e-02  -5.1048908465209424e-02 -4.1444415760447738e-02 -5.0217373999690021e-02  -5.3447663401551743e-02 -3.7444900498190117e-02 -4.9307336424008127e-02  -5.2103491590311177e-02 -2.9635636142078706e-02 -4.5780940992718670e-02  -5.1910907479101619e-02 -3.8105288990099136e-02 -5.1698248008832492e-02  -5.4008457199721811e-02 -3.4322084024766650e-02 -5.0736586075238052e-02  -5.2826092657290380e-02 -2.6760596516173060e-02 -4.7236196524068984e-02  -5.2714633841926893e-02 -3.4858985227708243e-02 -5.3159455937210526e-02  -5.4675084063164625e-02 -3.1385792194696616e-02 -5.2176959018730193e-02  -5.3791385854878866e-02 -2.4039961341565896e-02 -4.8790102533917822e-02  -5.3506795060272214e-02 -3.1876543273658048e-02 -5.4624908086451721e-02  -5.5439550864630781e-02 -2.8661738113117261e-02 -5.3641244667787351e-02  -5.4993451814115149e-02 -2.1091981119580164e-02 -5.0469299114264093e-02  -5.4369766392461938e-02 -2.8921498198497129e-02 -5.6200719883259226e-02  -5.6380506514846267e-02 -2.5828660707551063e-02 -5.5225981101815862e-02  -5.4566942340290844e-02 -4.6879122122963773e-02 -5.0395794529758377e-02  -5.4143850406043664e-02 -5.1736540758905998e-02 -5.3628777167161350e-02  -5.1962738267820351e-02 -4.9900138446845099e-02 -5.0684736634499045e-02  -5.2672450542516930e-02 -4.7166869584971433e-02 -5.2408699546154264e-02  -5.4716319117477909e-02 -4.9319656670401169e-02 -5.5294738670111435e-02  -5.5173466712285679e-02 -4.3903990622289640e-02 -5.2011344225528736e-02  -5.5696063783735587e-02 -4.0947863233180358e-02 -5.3421030322644378e-02  -5.5111695785237801e-02 -4.6846586079600870e-02 -5.6737421086993284e-02  -5.3203830937133177e-02 -4.4355601167632971e-02 -5.3925586968416157e-02  -5.6171815436675036e-02 -3.8017752048148591e-02 -5.4742374952141536e-02  -5.5568204221228275e-02 -4.4213123313830885e-02 -5.8014172820346412e-02  -5.3904355433391969e-02 -4.1304534450783734e-02 -5.5296367637079853e-02  -5.6734278586531822e-02 -3.5133637876802619e-02 -5.6024430038468444e-02  -5.6238837883293140e-02 -4.1318320618031007e-02 -5.9169424378919096e-02  -5.4656487351560333e-02 -3.8186537166830521e-02 -5.6606870897356547e-02  -5.7404720362769349e-02 -3.2386422531941482e-02 -5.7311650513892504e-02  -5.6996087800503872e-02 -3.8375462250902805e-02 -6.0271161400272846e-02  -5.5415961112761564e-02 -3.5206185874320423e-02 -5.7907279540103877e-02  -5.8115689739676110e-02 -2.9626431726083143e-02 -5.8690221601918328e-02  -5.7622734746368205e-02 -3.5465222616345576e-02 -6.1457969732896543e-02  -5.6145812733238654e-02 -3.2258364778499089e-02 -5.9308449772678136e-02  -3.9289138819894355e-02 -2.7031204445090481e-02 -1.8708854037609895e-02  -3.7996904875332319e-02 -2.9564348063974413e-02 -2.0980037859128102e-02  -3.8212383021142993e-02 -2.4137312479609197e-02 -1.3145551563975330e-02  -3.9975827943726540e-02 -2.0731072077241217e-02 -1.3505699054226324e-02  -3.9869333005884550e-02 -2.4924349612293593e-02 -2.1821116143099204e-02  -4.0899954296133578e-02 -2.2942632996355693e-02 -1.9449490670218242e-02  -4.1414919441637020e-02 -1.7999867656785854e-02 -1.4181338581672500e-02  -4.1334976714366402e-02 -2.1646928558688838e-02 -2.2794357068801563e-02  -4.2283273066932692e-02 -2.0034966053559384e-02 -2.0340695417857536e-02  -4.2826087087162977e-02 -1.4913384725183226e-02 -1.4876901984913139e-02  -4.2760352411482919e-02 -1.8820591791955957e-02 -2.3914209496871321e-02  -4.3703497165412448e-02 -1.7191575007533436e-02 -2.1380041809712310e-02  -4.4232433727182871e-02 -1.1798468877593591e-02 -1.5618315717108573e-02  -4.4187189268775025e-02 -1.5852474728896383e-02 -2.5152793724682449e-02  -4.5126251433086781e-02 -1.4188173082275228e-02 -2.2510003901607831e-02  -4.5641085596477025e-02 -8.6017231154358418e-03 -1.6461167024346808e-02  -4.5588506754389233e-02 -1.2780705686275333e-02 -2.6481607713879717e-02  -4.6527698845689552e-02 -1.1078562599215188e-02 -2.3728014892060837e-02  -4.7082343646079147e-02 -5.3211031488342555e-03 -1.7383077628784514e-02  -4.6956963194070993e-02 -9.6402870421902018e-03 -2.7899126648634285e-02  -4.7921998868207777e-02 -7.8949957009814657e-03 -2.5005429151242722e-02  -3.4144593496265065e-02 -3.7705757314670720e-02 -2.6191870284345147e-02  -3.2202986047292999e-02 -4.0544581752862088e-02 -2.7167347515406642e-02  -3.3533336379497625e-02 -3.3855957699034676e-02 -2.1421312381472383e-02  -3.5853083934981066e-02 -2.9312244584511957e-02 -2.2901220143229647e-02  -3.4163379248003077e-02 -3.6601157908492644e-02 -2.8961038571263791e-02  -3.6222115880363386e-02 -3.3426359227824803e-02 -2.7788743670332457e-02  -3.8070198816954282e-02 -2.9410989739709910e-02 -2.9364877707737384e-02  -3.6160100070011164e-02 -3.2759757940440476e-02 -3.0668628470069816e-02  -3.7647257264791290e-02 -2.5812436006683252e-02 -2.4418629968661520e-02  -3.9461487553203639e-02 -2.6094784184629384e-02 -3.0987068524727192e-02  -3.7754353052653004e-02 -2.9303301606618648e-02 -3.2356994005550026e-02  -3.8952464295573808e-02 -2.3033671831008542e-02 -2.6041480223938717e-02  -4.0625966428694885e-02 -2.3315939375506085e-02 -3.2705005559879353e-02  -3.8953587550234287e-02 -2.6355661239808863e-02 -3.4117927531306408e-02  -4.0227019201580810e-02 -2.0444524414877773e-02 -2.7831561592791602e-02  -4.1935591510363961e-02 -2.0640136735866101e-02 -3.4545778726336733e-02  -4.1598174122063007e-02 -1.7711141653617510e-02 -2.9700697486672940e-02  -3.6631151933225366e-02 -1.7958149839888683e-02 4.3568804475450076e-03  -3.7154636690659437e-02 -1.9838676773864517e-02 -4.0276449441038926e-04  -3.5921033280882524e-02 -1.9391056384269877e-02 2.2548517542059594e-03  -3.7307881531045535e-02 -1.7740136277753445e-02 3.0416628927779185e-03  -3.8576433678564850e-02 -1.8389803877892016e-02 1.5123600682158015e-04  -4.2729883393115613e-02 -1.0241689495368279e-02 6.9959919635269503e-04  -4.1282928189083211e-02 -1.1357641278215558e-02 6.7911418087717350e-03  -4.1386967887821535e-02 -9.9629615862011824e-03 3.8765647145366068e-03  -4.0021521137575837e-02 -1.2558039549531112e-02 3.8147639944343609e-03  -4.1371100493667656e-02 -1.2935594241278985e-02 7.0679879227043645e-04  -4.2505525262763341e-02 -8.9598030530363693e-03 6.7640754510723163e-03  -4.4060939551757938e-02 -7.3777271164148558e-03 5.3328759462578017e-04  -4.2758595972487379e-02 -7.1845578134890195e-03 3.8053169009957797e-03  -4.3682613840800869e-02 -6.2249761234180060e-03 6.6092781738039180e-03  -4.5296080157449771e-02 -4.2621569107107442e-03 3.2268156399324713e-04  -4.4140929182729792e-02 -4.1251623235834239e-03 3.7482276263121591e-03  -3.6788481179514464e-02 -2.5584507797030715e-02 -1.4148288582768908e-02  -3.8851247393864419e-02 -2.1680463854594770e-02 -1.4711302237342148e-02  -4.0390005994316538e-02 -1.8875022880268540e-02 -1.5471631715575248e-02  -4.1832929790723526e-02 -1.5933106680898781e-02 -1.6349014188271879e-02  -4.3286502953528476e-02 -1.2870391788262220e-02 -1.7325649747524485e-02  -4.4738067825519402e-02 -9.7225165228663115e-03 -1.8378370392813398e-02  -4.6168846938724098e-02 -6.5453219601759646e-03 -1.9515094210307088e-02  -3.9318863056830862e-02 -1.2060465030647156e-02 1.1398903898870218e-02  -3.8164410211730830e-02 -1.3897242831483544e-02 1.1200871168476666e-02  -4.0511479500078995e-02 -1.0029790761882521e-02 1.1338777255735665e-02  -4.7591152234575503e-02 -4.1650105515795059e-02 -4.0769586883444391e-02  -4.8697733620058289e-02 -3.7885866412610748e-02 -4.2260404183854551e-02  -4.9599260609133562e-02 -3.4224503892695449e-02 -4.3725563990981417e-02  -5.0354162142590288e-02 -3.0788936712251844e-02 -4.5197788211618635e-02  -5.1138652779151063e-02 -2.7730123255409245e-02 -4.6704395340913203e-02  -5.2086217409864265e-02 -2.4895133101842909e-02 -4.8286526358714922e-02  -5.3237099399327532e-02 -2.1947817738515941e-02 -5.0031187124316090e-02  -4.7549376730511059e-02 -5.2841311366354664e-02 -4.9982937271887885e-02  -4.4523918992193046e-02 -4.8973994623554423e-02 -4.4543292086380949e-02  -4.6932161474577433e-02 -4.6974487878668883e-02 -4.4585045473834732e-02  -4.7957083036385205e-02 -4.3688831661057859e-02 -4.6324979038354273e-02  -4.5554880180781465e-02 -4.5857935185677955e-02 -4.6375101833401607e-02  -4.8407681112372786e-02 -5.0181464972923910e-02 -5.1841509977342784e-02  -4.8921546829746504e-02 -4.0339709941417314e-02 -4.7911194978383448e-02  -4.6638817668004540e-02 -4.2624541461121164e-02 -4.8032723152973265e-02  -4.9124122880000926e-02 -4.7596481367841621e-02 -5.3453374499064302e-02  -4.9917837157490361e-02 -3.6845100605359962e-02 -4.9449403074703691e-02  -4.7828196328937499e-02 -3.9108075504239184e-02 -4.9608681747300418e-02  -5.0040959985826930e-02 -4.4560432700620774e-02 -5.4915928103222295e-02  -5.0823317153311141e-02 -3.3492695715550531e-02 -5.0991745280583159e-02  -4.8913692841956229e-02 -3.5598152529847542e-02 -5.1152345078216838e-02  -5.1083780122713411e-02 -4.1271106070134587e-02 -5.6283780602319748e-02  -5.1682037225629668e-02 -3.0439568159709659e-02 -5.2545031656867587e-02  -4.9894139836368090e-02 -3.2350693637212713e-02 -5.2695232923829723e-02  -5.2073429722830772e-02 -3.8002164947656299e-02 -5.7618525821402720e-02  -5.2621356417197403e-02 -2.7428147673924163e-02 -5.4231250473225232e-02  -5.0875743931485765e-02 -2.9213981958437257e-02 -5.4338643008166397e-02  -5.2922443009882095e-02 -3.4771620915409224e-02 -5.9022390011699004e-02  -3.8639145304364263e-02 -5.9238877880027289e-02 -5.1043678428654551e-02  -3.5902063760081815e-02 -5.9667371951338352e-02 -5.0199969555570566e-02  -3.8039990464457135e-02 -5.5293298221998716e-02 -4.6544113233055594e-02  -3.9257888835103789e-02 -5.2844483082997336e-02 -4.8555846825152363e-02  -3.7121911351651660e-02 -5.8015397879094259e-02 -5.1981751410286860e-02  -3.9735529462918751e-02 -5.7368560925756512e-02 -5.2902873831892253e-02  -4.0527463229625436e-02 -5.0457142848257898e-02 -5.0203814916144993e-02  -3.8316120646121346e-02 -5.6371369221985629e-02 -5.3345756257502812e-02  -4.0805135978832285e-02 -5.5546150674041082e-02 -5.4362429666142680e-02  -4.2004988317646381e-02 -4.7644219240843971e-02 -5.1685942649236004e-02  -3.9674682534223391e-02 -5.4408989345674633e-02 -5.4439710686255811e-02  -4.2065304929785143e-02 -5.3391922686433203e-02 -5.5554860813380208e-02  -4.3552027631825425e-02 -4.4389867754210936e-02 -5.3071258956276166e-02  -4.1125562230024261e-02 -5.1903646595375656e-02 -5.5351205317954795e-02  -4.3460990626419754e-02 -5.0694102780783110e-02 -5.6589597360666155e-02  -4.4973074739223226e-02 -4.0948003431158515e-02 -5.4363115167571606e-02  -4.2610115891999450e-02 -4.8919298700897236e-02 -5.6099861448938547e-02  -4.4912649786090476e-02 -4.7548682670098583e-02 -5.7492252370332911e-02  -4.6251732960245664e-02 -3.7408476716179744e-02 -5.5640445740666955e-02  -4.3967650244211183e-02 -4.5603411608220588e-02 -5.6716314911657677e-02  -4.6181908443154479e-02 -4.4139623094714378e-02 -5.8287158007147698e-02  -5.3673670431706400e-02 -4.1954513641516387e-02 -4.6215727908918161e-02  -5.4436312164850120e-02 -3.8513448099269841e-02 -4.7706924710135504e-02  -5.4896212539575912e-02 -3.5390338193948843e-02 -4.9120633068750946e-02  -5.5317622030015563e-02 -3.2517898016583856e-02 -5.0522152610495127e-02  -5.5950913940422224e-02 -2.9787091148855992e-02 -5.1933989894505560e-02  -5.6792012274862566e-02 -2.7176411826893340e-02 -5.3376470201437605e-02  -5.7775490462040349e-02 -2.4387480091638342e-02 -5.4924693464040490e-02  -4.5212848576496066e-02 -5.5560909026631293e-02 -5.0927782724446452e-02  -4.6086964313631636e-02 -5.3146502387598819e-02 -5.2845261425292396e-02  -4.6930849045728126e-02 -5.0849492011765342e-02 -5.4451778023599913e-02  -4.7826778607671434e-02 -4.8200906952213629e-02 -5.5881938814581797e-02  -4.8934564159386240e-02 -4.5082540720811887e-02 -5.7195376384762860e-02  -5.0124055966212201e-02 -4.1747082512411687e-02 -5.8427793787925605e-02  -5.1149820794672334e-02 -3.8360051275097215e-02 -5.9680045563756855e-02  -3.5638654604663166e-02 -5.4884802376693367e-02 -4.4638793207831241e-02  -3.6944869748126719e-02 -5.2468423882376096e-02 -4.6633879019481496e-02  -3.8365420736459988e-02 -5.0058059662129124e-02 -4.8291096541555258e-02  -3.9970173241351666e-02 -4.7266308619431686e-02 -4.9783992565583600e-02  -4.1586715133138302e-02 -4.4040804687248539e-02 -5.1159312357660101e-02  -4.3017638608408022e-02 -4.0614865704125251e-02 -5.2448207430272217e-02  -4.4312304508478853e-02 -3.7133059977537214e-02 -5.3714513383451665e-02  -4.4941894454177837e-02 -1.8138810073101412e-02 -1.7766221705278449e-02  -4.5605582350970689e-02 -1.7498675755607259e-02 -1.5387964928016666e-02  -4.3798555311640487e-02 -1.6810769054144123e-02 -8.8589862720630467e-03  -4.3626750590693077e-02 -2.1012990193111165e-02 -1.7557010902581736e-02  -4.6871524361465855e-02 -1.4477878653996136e-02 -1.5359681655401330e-02  -4.6268950136812682e-02 -1.5086620005532743e-02 -1.8072737261703928e-02  -4.5041230964648037e-02 -1.3887336093703698e-02 -8.5975035284162216e-03  -4.8173268705590959e-02 -1.1361681354388652e-02 -1.5448903256226901e-02  -4.7616443143080812e-02 -1.1937030004759095e-02 -1.8478631397073116e-02  -4.6301703223847857e-02 -1.0920758218227024e-02 -8.4768964998901998e-03  -4.9516640726862626e-02 -8.1184914908455068e-03 -1.5648825498120716e-02  -4.8986202081378639e-02 -8.6736268896492191e-03 -1.8981658535964060e-02  -4.7595499501919401e-02 -7.8179631962187208e-03 -8.4956934196559353e-03  -5.0913325307675235e-02 -4.7052970236533360e-03 -1.5934700669750879e-02  -5.0394776987960931e-02 -5.2752806640761467e-03 -1.9551117533038169e-02  -4.8956246859157851e-02 -4.4951192416412397e-03 -8.6567154504756348e-03  -4.3288842316017970e-02 -1.7487288506014213e-02 -1.1935402643034698e-02  -4.2024822307860983e-02 -2.0387275164066958e-02 -1.2060593272156887e-02  -4.4591018258288199e-02 -1.4493266660489551e-02 -1.1900993269606489e-02  -4.5904351031619509e-02 -1.1437148040391781e-02 -1.1998489292585943e-02  -4.7232455376285495e-02 -8.2651328877808745e-03 -1.2222387028551678e-02  -4.8598973947789378e-02 -4.9252221265673147e-03 -1.2592999246990491e-02  -3.9167545280889393e-02 -1.5597155378211785e-02 -2.3593098355751342e-03  -3.8660855174905903e-02 -1.5107656308370597e-02 3.5328049557321606e-03  -3.6993971367191056e-02 -1.5085816587636467e-02 5.9985478815172784e-03  -3.7759874879299805e-02 -1.8397289684764215e-02 -2.3605725642878131e-03  -3.8339351289633498e-02 -1.2606867790892030e-02 6.4416532989735988e-03  -4.0626297050849983e-02 -1.2758060885432146e-02 -2.4574180766236725e-03  -3.9710948374997640e-02 -1.0103659079630015e-02 6.6672771658244506e-03  -4.2094891717657672e-02 -9.8462245390578268e-03 -2.6916040422105044e-03  -4.1160597630310318e-02 -7.4190746510504587e-03 6.7558094803023610e-03  -4.3558743644468843e-02 -6.7960866171880678e-03 -3.0224259278569098e-03  -4.2728761097327178e-02 -4.4436894859245747e-03 6.8349866646349880e-03  -4.4986889080109352e-02 -3.5549836613051160e-03 -3.4150758604834484e-03  -4.0078724762813808e-02 -9.3897662962044923e-03 1.1200062574758935e-02  -4.1491883410802573e-02 -6.8295985638566611e-03 1.1221386886065200e-02  -3.6973762336101591e-02 -2.2246431911560553e-02 -7.3840379754686715e-03  -3.8799584192058492e-02 -1.9346173082500376e-02 -7.5363591331363044e-03  -4.0299213487341633e-02 -1.6491912353682536e-02 -7.7989223566269821e-03  -4.1760091464760611e-02 -1.3519784556377878e-02 -8.1342328575404188e-03  -4.3211627533071603e-02 -1.0469386848361701e-02 -8.6008161189093414e-03  -4.4648794508767929e-02 -7.3052489013820804e-03 -9.1549485540586579e-03  -4.6037534840904407e-02 -4.0011422957628032e-03 -9.7785579327740492e-03  -5.4494878280902340e-02 -6.0555184901076510e-02 -6.1555865999077655e-02  -5.2876265020221670e-02 -5.8838489658555461e-02 -5.8781107348279280e-02  -5.5330016553954350e-02 -5.8028622780779006e-02 -5.9858125099520168e-02  -5.5630180713212601e-02 -5.6719002549397511e-02 -6.1142100107784321e-02  -5.3276620292439833e-02 -5.7370616246040881e-02 -6.0228290792318007e-02  -5.4687156565300175e-02 -5.9756955192651867e-02 -6.2577655235672408e-02  -5.5851599842719021e-02 -5.5224474453622649e-02 -6.2144298198778807e-02  -5.3643457307149679e-02 -5.5827284909208477e-02 -6.1363103733131391e-02  -5.4878750666386415e-02 -5.8776190250885804e-02 -6.3311793808799907e-02  -5.6015539229356523e-02 -5.3504850130508250e-02 -6.2927245768264806e-02  -5.3924999115850560e-02 -5.4047269485882274e-02 -6.2268931259641905e-02  -5.5027986381786666e-02 -5.7542030244067566e-02 -6.3820652724280391e-02  -5.6210820396116530e-02 -5.1527009320582684e-02 -6.3518341191760114e-02  -5.4233497621570773e-02 -5.1971918485268477e-02 -6.2977670569313152e-02  -5.5125905328783968e-02 -5.6056736553387602e-02 -6.4127929853620508e-02  -5.6798265776271992e-02 -4.9014605132978874e-02 -6.3967280816771860e-02  -5.4915257014863647e-02 -4.9368041960117563e-02 -6.3529953071837619e-02  -5.5408022676938465e-02 -5.4142548908354064e-02 -6.4227892931655733e-02  -5.7655496550760466e-02 -4.6002036442822122e-02 -6.4363709943272729e-02  -5.5817241052110521e-02 -4.6246016301410620e-02 -6.4068279984903748e-02  -5.6185432893790827e-02 -5.1523892319745308e-02 -6.4208464911943944e-02  -4.2091484577579594e-02 -1.6402138536083310e-02 -5.4635129868649442e-03  -4.3391598966863308e-02 -1.3554226385865556e-02 -5.2534861813651190e-03  -4.4699733317162503e-02 -1.0658768236155747e-02 -5.2075164943899263e-03  -4.6007948455052627e-02 -7.6176558178086889e-03 -5.3168849729060405e-03  -4.7311005509528020e-02 -4.3325937290628856e-03 -5.5557186258190418e-03  -4.5331596298255526e-02 -4.2166692690747548e-02 -3.9431145813724644e-02  -4.6534024233211499e-02 -3.8439924493345413e-02 -4.0991253692001413e-02  -4.7683277679849943e-02 -3.4666063804017024e-02 -4.2533956439692627e-02  -4.8637435875917283e-02 -3.1112765193591439e-02 -4.4070447551202555e-02  -4.9528642319487434e-02 -2.7957713413121768e-02 -4.5655449062452946e-02  -5.0445223075256160e-02 -2.5131804121046250e-02 -4.7315578438484836e-02  -5.1629116594970492e-02 -2.2164212586531305e-02 -4.9129519057990428e-02  -3.8247256710635648e-02 -1.9494034486886972e-02 -8.6818886981916490e-03  -3.9729692489847118e-02 -1.6670301018456343e-02 -9.2377145708945931e-03  -4.1217521467463478e-02 -1.3681724274563900e-02 -9.8890014539994679e-03  -4.2726210280657054e-02 -1.0596818447752699e-02 -1.0652021551280864e-02  -4.4231348139354677e-02 -7.4158132917896162e-03 -1.1487445365142039e-02  -4.5676396145787716e-02 -4.1500377967752505e-03 -1.2347887704520390e-02  -5.2272582085179348e-02 -6.1931488162451254e-02 -6.1349298114109212e-02  -5.2520402908267740e-02 -6.1203669744286669e-02 -6.2398805074585388e-02  -5.2786693219458961e-02 -6.0298274517741161e-02 -6.3153755102493631e-02  -5.3046223350843198e-02 -5.9178342058693059e-02 -6.3662769702542213e-02  -5.3231862807310522e-02 -5.7790118348141239e-02 -6.3942752583871734e-02  -5.3537949424623137e-02 -5.5969155278686067e-02 -6.3998770346312017e-02  -5.4293464232299901e-02 -5.3441457012154671e-02 -6.3943130017593733e-02  -5.1701734472973736e-02 -3.2690279497273787e-02 -3.7014233330192860e-02  -5.0276660929936837e-02 -3.5429483585740225e-02 -3.8028289495705109e-02  -4.9537753834037121e-02 -3.0986503960346960e-02 -3.3207463201090706e-02  -5.0970762490616411e-02 -3.1508680213381088e-02 -3.9130222921635649e-02  -5.2025797690913256e-02 -2.9004074517930002e-02 -3.8008711289894775e-02  -4.9787528133506849e-02 -2.7134520133279823e-02 -3.4043183935690960e-02  -5.1316292042267550e-02 -2.8180096780571897e-02 -4.0264698465203315e-02  -5.2267239740319951e-02 -2.6027365876339751e-02 -3.90628473945