<?xml version="1.0"?>
<VTKFile type="UnstructuredGrid"  version="0.1"  >
<UnstructuredGrid>
<Piece  NumberOfPoints="1032" NumberOfCells="4339">
<Points>
<DataArray  type="Float64"  NumberOfComponents="3"  format="ascii">7.241015102650753 3.630563557155715 3.9686634451317  7.154103715495178 3.682094213486081 3.934586398363172  7.180707848430292 3.561229139229259 4.008533997785312  7.178116652159907 3.602291121635381 4.080467238012094  7.149425084700019 3.725481284749084 4.004561471359173  7.241266909988407 3.67288040033066 4.040321632302404  7.241520708790393 3.715144675823743 4.111715260704267  7.144800118737075 3.768798997972659 4.074274341374021  7.175557506954095 3.643328474381529 4.152140549667352  7.241751708589262 3.757330189008667 4.182890524097335  7.140192854181713 3.81201742064311 4.143777791538951  7.172995339249632 3.684304060963987 4.223623806219783  7.241924675538042 3.799449800693462 4.253921018029109  8.325713921899109 3.116648791980366 4.020909299379096  8.225244119475827 3.17808607726428 4.016075838819716  8.253072845502198 3.036974004990628 4.031584420921045  8.25619827902624 3.043706214550575 4.104081630754037  8.230688658143388 3.194420665390677 4.087773839821865  8.326852051142385 3.128067602166291 4.092779258750998  8.259423744179804 3.050398411894561 4.176502516507352  8.236209094508386 3.210691675213355 4.159419307635977  8.328107399953225 3.139441119382875 4.164571423480452  8.262690172569789 3.057032196618676 4.248855461561353  8.241751511092808 3.22690323405958 4.231009588573166  8.329415025601334 3.150750795043352 4.236299966065707  8.265966822301966 3.063596901598663 4.32115641213493  8.247290179982828 3.243046039308377 4.302562620594901  8.330731675263349 3.161981281174787 4.307980874065416  8.269225275311822 3.070087597493645 4.39342751660425  8.252812537246916 3.259124090204242 4.374111806303409  8.332013259636645 3.173121108148248 4.37963884658442  8.272412063845307 3.076518455827022 4.465711254244579  8.258312954479562 3.275169100182814 4.445704763617877  8.333177668796177 3.184198368309765 4.451313040269603  8.996022252196974 3.473168889477356 4.30314274820133  9.10017783189469 3.374402125127867 4.341777545327639  8.999920347497817 3.293096193145508 4.378151046694822  8.998004934222136 3.273229252043518 4.309051135439274  8.996363848837778 3.502704858437684 4.367928744123659  9.104761882133507 3.39702876895015 4.409242566705949  9.001823254483561 3.31282814614124 4.447162548023023  8.134762720406565 3.061471713269 4.036785809407766  8.143266184248331 3.06941096103151 4.109940610960142  8.151828367475634 3.077308214108008 4.183013653119232  8.16040323900898 3.085147554425864 4.256019226349704  8.168975136852429 3.092924650144127 4.328973068298931  8.177535045290547 3.100636110718977 4.401895271539147  8.186076616135542 3.108311360403864 4.474824637464458  8.502551233860208 3.377192284337621 3.93141123628188  8.387320935264309 3.315195497764793 3.968954116750488  8.497210317520977 3.282283706248716 3.982984949383659  8.495878371106405 3.308348134281785 4.050961899974285  8.38670705520893 3.34438533080741 4.035812947749338  8.50126032021991 3.414561028988412 3.993209218106649  8.494681886467005 3.334299302845963 4.118821847869685  8.386242166955137 3.373461256009351 4.1026269652521  8.500123297232092 3.451746236636643 4.054942843996887  8.493557518120298 3.360155101977457 4.186627684931157  8.385832145057007 3.402457446380497 4.169409382821133  8.499062718903756 3.488825732958579 4.11664486434421  8.492434718539267 3.385927365243758 4.254407215956594  8.385425132020933 3.431388378263818 4.2361827564402  8.498015572845246 3.525843510302845 4.178337675092961  8.491246570419623 3.411625002341058 4.322176153459916  8.384971331423962 3.460273001729864 4.302979009828108  8.496921733013007 3.562826581986043 4.240026927229327  8.489959111205177 3.437245891121245 4.389950740469684  8.384357921673436 3.489136250864811 4.369839425233327  8.495699253718088 3.599798046579254 4.301696427191415  8.387546725086748 3.402371317050431 3.915305791917504  8.389051860322356 3.441496969740765 3.976111243444464  8.390664577872418 3.480443214344273 4.036887046682157  8.392326090552372 3.519298394658314 4.097649424514841  8.393995522261976 3.558108792703699 4.15841410239374  8.395632419772014 3.596908136605704 4.219196068390936  8.397190473912865 3.635728738281788 4.280022058256688  8.994165394544964 3.323734678912614 3.977723939903347  8.872646067390585 3.279122480104538 3.99581341094685  8.990427223869519 3.192860859896217 4.031499680485336  8.871380267280562 3.305795361482294 4.062983184112293  8.994454267453927 3.353867272433668 4.04314149033971  8.992289512074201 3.213051461251274 4.101154501737946  8.870225405103758 3.332359361240268 4.129924558064336  8.994825562452053 3.383866879397264 4.108315277989906  8.994183426202293 3.233190466056591 4.170577032774716  8.869126753753557 3.358813768249671 4.196726305761384  8.9952269766355 3.413743035862753 4.173344134930726  8.996090314952152 3.253255396903956 4.239864556233325  8.868040690760058 3.385164617877096 4.263437398410536  8.995632624533471 3.443509463730231 4.238277776942152  8.86693436863041 3.411411523749977 4.330074198175232  8.865777319657784 3.437547790782923 4.396634822451011  7.770387370297348 2.916395362209368 4.114239276231005  7.749088863647986 3.021336541737583 4.117600757873099  7.649770391154993 2.977943531958256 4.141633204223855  7.666689511081853 2.982761010383214 4.221091628593651  7.766468710780987 3.028173302305289 4.195239914292971  7.787897679000459 2.915153514719344 4.191146614725576  7.683599666417891 2.987593393888026 4.300486160462469  7.783830454517751 3.03500842701905 4.272803364406879  7.805424134643955 2.913880773143771 4.267991458203156  7.700498345754356 2.992406859884283 4.379815296314055  7.80117885402685 3.041820100918962 4.350294388122862  7.822948994470151 2.912575185976773 4.344771567758952  7.818516490618102 3.048588645537564 4.427728799665644  7.840463121504788 2.911227243375305 4.421498137697552  7.717387226453662 2.9971800709852 4.459081167617963  7.835849492770503 3.055301397159667 4.505116281725866  7.857960942106604 2.90983410634598 4.498180812020925  7.734268758751052 3.001896099622873 4.538300118604146  7.853195533684761 3.061950278419348 4.582473709022223  7.875439136022266 2.908407323107809 4.574840353087378  7.75114628754545 3.00654559868325 4.617478083858899  7.65545345745675 2.85410992411247 4.13833169907562  7.674639839807348 2.847934322893389 4.216366329979082  7.693847011021663 2.841738778170165 4.294344724678292  7.713050484140778 2.835512537883707 4.372261973360028  7.732238957276956 2.829246659662395 4.450125690614372  7.751405378709181 2.82293808095367 4.527948419963705  7.770546970547794 2.816590884400966 4.605746202977956  8.187927092078722 2.93706002117474 4.041743160548916  8.194317334686652 2.937419885407257 4.114499962444809  8.200781536586799 2.937718054540313 4.187190612676019  8.207275166436332 2.93796423388198 4.259814107444702  8.213771210904941 2.938151984513675 4.332381756721816  8.22024556559766 2.938278392410214 4.404908529089716  8.226664667963059 2.938364186775867 4.477421575166833  7.696637833463237 3.58797579244999 3.928827920415707  7.600270052275697 3.656449709165809 3.912206073106202  7.5955181378793 3.519693364885948 3.991503952125342  7.609801583245891 3.558408344535963 4.063241010711498  7.617670899451728 3.702731448321519 3.978279596747921  7.715371431676097 3.631306808415239 3.99445417997874  7.623909632085968 3.597165589887594 4.134755998232959  7.634821283754537 3.749000256460604 4.044160828373501  7.733834233940748 3.674616759729985 4.059919532550715  7.637898828103211 3.635884466910948 4.206120218788363  7.651827086105054 3.795207969643366 4.109908700464954  7.75216503322589 3.717873412645493 4.12528528721116  7.65183215422291 3.674516720745163 4.277377795915704  7.66877906673024 3.841315314925549 4.175552540233934  7.770461978232357 3.761048234921056 4.190566079412835  7.665769795886464 3.713013583158848 4.348549042032994  7.685746252556046 3.887275788283878 4.241105613850403  7.788804900690673 3.804098600603735 4.255750718928998  7.679766789647603 3.751316369826086 4.419649971059738  7.702788468015281 3.933057343684257 4.306570085439663  7.807239112727936 3.846956217341532 4.320810019059087  7.514149997505439 3.599049121657181 3.961435156667186  7.526445183976521 3.641079707947856 4.032853261494252  7.538573387581202 3.683097454646024 4.103971341937702  7.55056866606816 3.725069809670131 4.174915707657866  7.562492664851017 3.766945686151708 4.245736956131633  7.574388292386085 3.808667981176617 4.316468252378982  7.586334721987371 3.850206341899959 4.387078341852495  8.071922905664964 2.96397103709662 4.058872133130482  8.08345836230944 2.966448126308975 4.132650466659044  8.095035541131093 2.968859986889043 4.206358419900908  8.106622988535687 2.971222893682889 4.28000482677041  8.118204110341415 2.973532087512312 4.353599656343932  8.129765782573921 2.975790210508114 4.427160105346021  8.141303801035139 2.97802179535752 4.5007060478119  7.696535185163316 3.11331829626707 4.115663523542921  7.712751714099261 3.126012728683114 4.193952352632741  7.728925819515378 3.138743610022998 4.272156048152744  7.74507189780387 3.151457615342832 4.350281645063442  7.761204946604013 3.164124400482957 4.428340675859164  7.777342031985698 3.176721935719268 4.506346819257853  7.793500840549059 3.189231718988298 4.58431037858384  8.709490445084992 3.078200690399379 4.047700531443144  8.647153631855536 3.138016843870508 4.030235643980507  8.615549757469154 3.018280721381559 4.044106033566086  8.610343447317224 3.023715659062122 4.115884915668847  8.642893703146397 3.153165022413136 4.10104492247724  8.704363903072982 3.089284561158983 4.119257671394757  8.605246497136861 3.02916862977757 4.18752904672303  8.638770709483699 3.168275807237025 4.171699739931531  8.699350544813619 3.100362860594827 4.190661836246463  8.60020549602001 3.034582838559559 4.259066913325547  8.634
[...]
<PointData  Vectors="f_16"> 
<DataArray  type="Float64"  Name="f_16"  NumberOfComponents="3" format="ascii">-5.7722270932108683e-03 1.6857446882890367e-02 1.8934858237601528e-02  -5.3276660782377383e-03 2.0477550666446780e-02 2.1606193542455424e-02  -5.2343537894999114e-03 1.3644543045978759e-02 1.7765457230934666e-02  -3.6255575324096300e-03 8.5980531125699235e-03 1.8790892745773339e-02  -3.8760401884295054e-03 1.5250349765901033e-02 2.2961390208103657e-02  -4.3746482118396162e-03 1.1636859121455650e-02 2.0082178937274184e-02  -3.3282679952294256e-03 7.4228234166574519e-03 2.1321375012551248e-02  -2.4601855643231235e-03 1.0657733607422169e-02 2.4387114062169552e-02  -2.6664716863124428e-03 4.7310709502060826e-03 1.9864772839178698e-02  -2.9257687914344133e-03 4.2113034666078387e-03 2.2736582953576612e-02  -1.6976568954614544e-03 6.9561648664379682e-03 2.5971551202368773e-02  -2.3128204055372268e-03 1.8673485415933826e-03 2.1145226503662740e-02  -2.3363703946253584e-03 1.3614041879867857e-03 2.4366037372975533e-02  -2.3321085619616651e-02 -5.1499117122105818e-04 -8.9397982181759449e-03  -2.1294695160199901e-02 1.3692912039290511e-03 -7.0979099092058524e-03  -2.1927920924535507e-02 -2.9502753556874977e-03 -8.0797579659609674e-03  -2.1606307907708022e-02 -5.2362225457441786e-03 -8.2390202917052447e-03  -2.1115288159666241e-02 -2.5793469166167028e-03 -7.1726450611398406e-03  -2.2657414420233290e-02 -3.8700861475317303e-03 -8.9985881221457675e-03  -2.0095831305385253e-02 -5.6343873359584930e-03 -8.1758221508901434e-03  -2.0393034416956956e-02 -3.9789259016359980e-03 -7.1251065029708498e-03  -2.1358513587318488e-02 -4.6390222741590839e-03 -8.9699127394066921e-03  -1.8674407660824573e-02 -6.1456768323924441e-03 -8.0054441919771169e-03  -1.8911497739409013e-02 -4.7785429834590332e-03 -6.8972409359472952e-03  -1.9871310453416103e-02 -5.2523932014870997e-03 -8.7045638168028721e-03  -1.7262150933790014e-02 -6.7049913645874076e-03 -7.6642182605474877e-03  -1.7486061359262839e-02 -5.7224934724599613e-03 -6.4017399538601940e-03  -1.8471730332352582e-02 -6.0006508760316072e-03 -8.2186543521224013e-03  -1.5869097079229465e-02 -7.2500481492298891e-03 -7.1043329659824517e-03  -1.6048328194527547e-02 -6.6043774767230948e-03 -5.6035294758387550e-03  -1.7152299722489189e-02 -6.7080320337378988e-03 -7.4865527253215021e-03  -1.4476868137598771e-02 -7.6830775022773811e-03 -6.2719176435975651e-03  -1.4514518961500824e-02 -7.2276293482377357e-03 -4.5509298542282927e-03  -1.5929100876401363e-02 -7.2279508881818739e-03 -6.4590139590886674e-03  -2.6153615801757162e-02 -5.8708380896144805e-03 -1.0785486422532652e-02  -2.6142897261625466e-02 -5.2931439436961023e-03 -1.3881477641063565e-02  -2.4688603796230293e-02 -5.5571700699183785e-03 -1.3871384830028869e-02  -2.5594415572770920e-02 -4.5975976565557682e-03 -1.4923584325461429e-02  -2.5427074300186384e-02 -7.0208500406583781e-03 -8.8785086337140155e-03  -2.5286774713800558e-02 -6.2108867132287734e-03 -1.2559684566000996e-02  -2.3883320080264683e-02 -6.2436650645358392e-03 -1.2838087863707206e-02  -1.9478203114310793e-02 -2.6112338044927221e-03 -6.1138270467556190e-03  -1.9984590653254669e-02 -4.9333304655014695e-03 -6.2853925500817595e-03  -1.8818497206844042e-02 -5.7609433972700633e-03 -6.2893183390438107e-03  -1.7356189298787416e-02 -6.2597488323502971e-03 -6.2062734743971804e-03  -1.5917642446819195e-02 -6.8720051874571102e-03 -5.9486802726369968e-03  -1.4428974298069950e-02 -7.4811430366985470e-03 -5.4846562426837256e-03  -1.2776909710258315e-02 -7.9871262591537096e-03 -4.7487193154263606e-03  -2.5692721329889218e-02 1.2309892421379854e-02 -9.7920100392886004e-03  -2.4132158661903474e-02 7.7039394714040772e-03 -8.8388730428307413e-03  -2.5923959561162977e-02 5.4255230703753096e-03 -1.0722717944212447e-02  -2.5312340571685361e-02 3.5774031266244032e-04 -1.0563603433238622e-02  -2.3589819558624849e-02 2.3621706680496323e-03 -8.5522126008116157e-03  -2.5305903573686513e-02 6.3659186574812890e-03 -9.1600431877940491e-03  -2.4244311209690075e-02 -2.0160956639051057e-03 -1.0292208324598083e-02  -2.2856660599479221e-02 -7.9236605481675408e-04 -8.1707193631697303e-03  -2.4606116420579159e-02 2.1766884274416077e-03 -8.3921889335650621e-03  -2.2762900616397193e-02 -3.1955671187080736e-03 -9.5858381129600434e-03  -2.1622321868214316e-02 -2.3612318192567181e-03 -7.5190474828157267e-03  -2.3693420928890364e-02 -4.2665517266866210e-04 -7.2353867985314093e-03  -2.1530283015844011e-02 -4.6006639583592796e-03 -8.4652413378338270e-03  -2.0257377207718752e-02 -3.9445705202660313e-03 -6.3448364737092632e-03  -2.2376880095840330e-02 -2.4250000188456400e-03 -5.5163874535688728e-03  -2.0423057334630807e-02 -5.8990676599549666e-03 -6.9920401561089059e-03  -1.9019595499461174e-02 -5.4373394473662068e-03 -4.7272326091881292e-03  -2.1292611596682984e-02 -4.3624277852060611e-03 -3.2371334741598395e-03  -1.9463738926421063e-02 -6.8391907628325092e-03 -5.2766808483565644e-03  -1.7942873382386312e-02 -6.5868297290472520e-03 -2.8340357758182325e-03  -2.0348102486463050e-02 -5.9121998887278456e-03 -5.2453766476255484e-04  -2.3893243857729389e-02 1.4856927969341753e-02 -7.7518883987817587e-03  -2.3478678758949767e-02 9.0177118829804625e-03 -6.9822701957706042e-03  -2.2871239359419367e-02 4.4878725382399053e-03 -6.0373444907828042e-03  -2.2122762808005507e-02 1.3867947241773659e-03 -4.8093612820609005e-03  -2.0972812875254428e-02 -1.0253031786493288e-03 -3.0546563924695748e-03  -1.9849093413677601e-02 -3.2248741534565135e-03 -7.2425600782216582e-04  -1.8723873472779113e-02 -5.0742350352707827e-03 2.1156401748757170e-03  -2.9822906841744695e-02 6.0270240233370326e-03 -1.5975039444436699e-02  -2.9293153563629593e-02 3.9008190238000698e-03 -1.5104172406371829e-02  -2.9200272711384333e-02 1.0258576544688396e-03 -1.6802318051254646e-02  -2.8752010292290200e-02 -5.0330758433364455e-04 -1.4954548576539590e-02  -2.9699392070352323e-02 1.1092071457875494e-03 -1.5687790644121721e-02  -2.8762757630973176e-02 -1.4713658959645143e-03 -1.6811400151052498e-02  -2.7714343757457464e-02 -1.9711729764531620e-03 -1.4510865527709249e-02  -2.9162521969273793e-02 -9.1896023372249418e-04 -1.5138834605249188e-02  -2.7648087381977209e-02 -2.3848140052322086e-03 -1.6459992930279700e-02  -2.6563070919454642e-02 -3.3366852268477561e-03 -1.3645607180285705e-02  -2.8056280056782554e-02 -2.6024060400690061e-03 -1.4067019467085596e-02  -2.6586896289769357e-02 -3.4844831999927355e-03 -1.5818347596691450e-02  -2.5537162160717056e-02 -4.7927412288575741e-03 -1.2408398237796704e-02  -2.7041436571473138e-02 -4.3283981848631680e-03 -1.2555420474801720e-02  -2.4647352940309262e-02 -6.0936990488854878e-03 -1.0918940886702994e-02  -2.3928124355387277e-02 -7.0356558682604228e-03 -9.2705330368174181e-03  -1.3219830421831081e-02 -7.8558450161534416e-03 -4.5380225731199767e-04  -1.2954672719673342e-02 -5.5156250233426747e-03 7.6154730781875877e-04  -1.1467968108797735e-02 -6.6028198397294156e-03 2.2033110729487103e-03  -1.1889994823965560e-02 -7.6274496671305423e-03 1.9126239440850465e-03  -1.3509358667960667e-02 -6.7743470545744222e-03 4.4756855131961645e-04  -1.4031052091188557e-02 -8.1775164777668757e-03 -7.9718230362632949e-04  -1.0612545629923319e-02 -8.1989643794455926e-03 1.7795698014546144e-03  -1.2332251549047319e-02 -7.4869169257658014e-03 3.0290316532787713e-04  -1.2688632806294273e-02 -8.5261461825684431e-03 -1.0530858915162801e-03  -9.1798929069003207e-03 -8.7248218258601413e-03 1.7509902472323353e-03  -1.0901826457120017e-02 -8.0414261545767533e-03 2.7956473408328943e-04  -1.1285245800669976e-02 -8.8601032764379153e-03 -1.1354638915325641e-03  -9.3964189529000125e-03 -8.6714492852214310e-03 3.8408285828805640e-04  -9.8098968745952038e-03 -9.2485900125027984e-03 -1.0921777854041453e-03  -7.6854952263408771e-03 -9.3100525264773141e-03 1.8252506443700565e-03  -7.7559043294835161e-03 -9.3427181657108754e-03 5.7804971614740415e-04  -8.2079715909936322e-03 -9.6952500404663289e-03 -9.6332531629297153e-04  -6.0791266166211177e-03 -9.9505074138082246e-03 1.9655868467808178e-03  -5.9240896406951666e-03 -1.0028527403149133e-02 7.7929685916047970e-04  -6.4247953116798465e-03 -1.0205966104965408e-02 -8.0979213114749221e-04  -4.3360065097531311e-03 -1.0633720661703176e-02 2.1105673917810263e-03  -1.1405686095658516e-02 -9.3070841417637433e-03 1.0609195764430038e-03  -1.2249768914692146e-02 -9.1443715776713640e-03 6.5997857526713534e-04  -1.0853054393267223e-02 -9.3736669221092875e-03 3.7188272998439154e-04  -9.4906822704919572e-03 -9.6548600735971452e-03 2.4755589856664649e-04  -8.0530204879860467e-03 -9.9529438943145327e-03 2.3060550611276158e-04  -6.5009999904875838e-03 -1.0318486532829818e-02 2.8650632444941651e-04  -4.7845711972981809e-03 -1.0792219506041282e-02 3.5231208650108350e-04  -2.0270819642224588e-02 -6.0994232867402380e-03 -7.5139478845311410e-03  -2.0592007342816042e-02 -6.5769831568583525e-03 -7.6671552864592540e-03  -1.8921743554669867e-02 -6.8370841342332957e-03 -7.6751095083646614e-03  -1.7527892702794003e-02 -7.1924158362865840e-03 -7.5952137052642905e-03  -1.6131496043507460e-02 -7.5645918585968775e-03 -7.3597706583151765e-03  -1.4716217821127413e-02 -7.9437547331656540e-03 -6.9388133213505853e-03  -1.3249353386767951e-02 -8.3103484566055576e-03 -6.2943909569439472e-03  -1.1590552078833806e-02 1.8309935531284221e-02 1.0273502077751675e-02  -1.0213995567334296e-02 2.1033429485051044e-02 1.4235882886955004e-02  -9.6882546311104559e-03 1.2040426413121084e-02 1.0416410140001000e-02  -8.8709280807244134e-03 7.0573833456758694e-03 1.1020939018033213e-02  -9.3917392045259115e-03 1.5426438468824072e-02 1.5464829395297459e-02  -1.0869980154543928e-02 1.2842552054564402e-02 1.1193331961902787e-02  -8.7614389292755557e-03 3.7647810565358663e-03 1.1820392306738257e-02  -8.9191162145351912e-03 1.1061833524162108e-02 1.6914750512126018e-02  -1.0559212632798163e-02 8.7542604384129499e-03 1.2348568021537391e-02  -8.3770364811130114e-03 1.0071411162460601e-03 1.2875369167369708e-02  -8.5918854950838980e-03 7.5751090423045193e-03 1.8715691973301009e-02  -1.0272033956044806e-02 5.4857238295280318e-03 1.3815982552941591e-02  -7.3969516686646876e-03 -1.5604040170846857e-03 1.4112068231217974e-02  -7.9944883189660507e-03 4.3262237515219329e-03 2.0860367872478473e-02  -9.5743787587058149e-03 2.4526871678300509e-03 1.5629543052259859e-02  -6.0841887584542594e-03 -4.0435155715507713e-03 1.5679319383297037e-02  -7.0084121486462380e-03 1.1375103949049594e-03 2.3278157156832201e-02  -8.4350612213307235e-03 -4.9466317568969001e-04 1.7752290889134981e-02  -4.4539102558863375e-03 -6.4784525042292417e-03 1.7459983067318552e-02  -5.6625217008418717e-03 -2.0588586045799271e-03 2.5879665232323542e-02  -6.8480780127097738e-03 -3.4474549648877873e-03 2.0097651577226382e-02  -8.7461432702803672e-03 1.6035836516567793e-02 1.3982442025514684e-02  -7.6720874300881181e-03 1.0539068542448909e-02 1.4901267530015389e-02  -7.2653505414831624e-03 6.6631923270190491e-03 1.5998760684091992e-02  -6.9325444711911743e-03 3.5945254236063205e-03 1.7305077223468048e-02  -6.1534823512974747e-03 6.6625743021774052e-04 1.8918354775074701e-02  -5.0726634823988169e-03 -2.1692474038895243e-03 2.0830883866417169e-02  -3.7215882873556853e-03 -4.9673213669615629e-03 2.2978692073384554e-02  -1.8295319097312253e-02 -5.9579161771740217e-03 -5.5147277286505285e-03  -1.8926662606599150e-02 -6.5866577856621943e-03 -5.7349653166860384e-03  -1.7437374764706512e-02 -7.0147170505996366e-03 -5.8285435582130906e-03  -1.6042228705743979e-02 -7.4082100867743448e-03 -5.7845278349348828e-03  -1.4610296566766823e-02 -7.8260859696825825e-03 -5.5971382004935937e-03  -1.3092459797780925e-02 -8.2593039644217429e-03 -5.2310651565860272e-03  -1.1402697644963506e-02 -8.6815133387548524e-03 -4.7445207225693163e-03  -1.1922007659080915e-02 -3.3651201852019706e-03 2.4789891224344480e-03  -1.2399856946600668e-02 -5.2740085159992366e-03 2.3294983193186129e-03  -1.1504875298648029e-02 -6.5275072538935781e-03 2.2661201423060805e-03  -1.0068236662126043e-02 -7.2972932118509810e-03 2.3201012883321079e-03  -8.5465095061679590e-03 -8.1565327030268045e-03 2.5073573845584931e-03  -6.8932357978754273e-03 -9.0578453022078127e-03 2.7925671715980827e-03  -5.0616012933675176e-03 -9.9402228330009740e-03 3.1004445170223962e-03  -2.7416338360346969e-02 -1.8742675253450593e-03 -1.4157699885114686e-02  -2.7543865984072456e-02 -5.4721354305585761e-04 -1.3264966628853311e-02  -2.6756158981249244e-02 -2.9703795122417841e-03 -1.3229715034057116e-02  -2.4641623976091744e-02 -4.1849657120844501e-03 -1.3166558545757932e-02  -2.5926266061657481e-02 -3.1333327158930770e-03 -1.3273113404727734e-02  -2.5790904365417068e-02 -3.5212986489980944e-03 -1.4128452202819683e-02  -2.3351923634405084e-02 -4.7066381993771146e-03 -1.2892267400760592e-02  -2.4516543758270334e-02 -3.7508065214518290e-03 -1.2985638726099305e-02  -2.4450137989750053e-02 -4.0609290931985769e-03 -1.3823129943936878e-02  -2.2057356633508104e-02 -5.2624643954667675e-03 -1.2513151489640439e-02  -2.3206392806007080e-02 -4.5639155456193153e-03 -1.2470093814293917e-02  -2.3209885900619329e-02 -4.7696709545927644e-03 -1.3330350344436024e-02  -2.0872866987172337e-02 -5.8326913560513326e-03 -1.1958182836316470e-02  -2.2049830704743725e-02 -5.4358079191586025e-03 -1.1717288836778720e-02  -2.2089556773714578e-02 -5.4953075528132583e-03 -1.2650871190705971e-02  -1.9839292442828772e-02 -6.3492454731633530e-03 -1.1260418655166762e-02  -2.1052844368253498e-02 -6.2066760195437940e-03 -1.0779071093256336e-02  -2.1115101388106180e-02 -6.1305501253528941e-03 -1.1830538814710471e-02  -1.9002000269279978e-02 -6.7681094766903370e-03 -1.0457582777649294e-02  -2.0240109876865909e-02 -6.7297170792439591e-03 -9.7237433867341065e-03  -2.0344127039271739e-02 -6.5899225193517550e-03 -1.0976248453033886e-02  -2.6481007299225295e-02 -1.6670733680624178e-03 -1.2149634947471849e-02  -2.6683857464384557e-02 1.5214989516226640e-03 -1.1865817331383890e-02  -2.5160702737566269e-02 -6.1777407000378703e-04 -1.0588869077054369e-02  -2.3943444319298925e-02 -3.7641269337199772e-03 -1.0608917904438377e-02  -2.5668674405165678e-02 -2.4565082529790162e-03 -1.1824515562737906e-02  -2.4756285685240895e-02 -3.8074597707353592e-03 -1.2169436181000052e-02  -2.2408954577455793e-02 -4.2489468480508864e-03 -1.0393892376274727e-02  -2.4086003958676667e-02 -3.2708403305898425e-03 -1.1582894141361811e-02  -2.3275769162673425e-02 -4.3182788414256115e-03 -1.1955405814676150e-02  -2.0987152861531543e-02 -5.0048764405307075e-03 -1.0007332139627905e-02  -2.2740957697161768e-02 -4.2169466892865923e-03 -1.1060580057377161e-02  -2.1928647195144129e-02 -5.0263354140637198e-03 -1.1518959820709501e-02  -1.9644569566795084e-02 -5.7957231206794118e-03 -9.3848666282401287e-03  -2.1491461937994345e-02 -5.2514382507692307e-03 -1.0261142070905711e-02  -2.0712416466148277e-02 -5.7644167101636012e-03 -1.0864169569586043e-02  -1.8432939018896793e-02 -6.5099791056591576e-03 -8.5115831053815868e-03  -2.0420624068477597e-02 -6.1883631517546424e-03 -9.1868777176543400e-03  -1.9655551309843252e-02 -6.4170643779970513e-03 -1.0019076590419758e-02  -1.7458723945369140e-02 -7.0057853277952012e-03 -7.4315903830492530e-03  -1.9553355743506095e-02 -6.8404886573438638e-03 -7.9109547745695539e-03  -1.8787173675769538e-02 -6.8907533282857236e-03 -9.0730200692987050e-03  -9.1608903591158912e-03 2.4936169680820595e-02 1.8034649111866842e-02  -8.5831515493506733e-03 1.9364778286706918e-02 1.9567834393959285e-02  -7.8747404996614839e-03 1.4531208318952483e-02 2.1336616155320776e-02  -7.4789344924042237e-03 1.0652043274803666e-02 2.3440013727761593e-02  -6.9965371208548701e-03 7.1654125191091180e-03 2.5886743896830624e-02  -6.2187754070272471e-03 3.7417837096452660e-03 2.8590542165983064e-02  -5.1377496023395780e-03 2.9688496537598095e-04 3.1482625633912187e-02  -1.0281214956806690e-02 -4.0919241737960681e-03 4.2682688929009151e-03  -1.0634234833468405e-02 -5.9121833967765028e-03 4.1491185631407921e-03  -9.6933558533520946e-03 -7.0947374379828673e-03 4.0897128733947564e-03  -8.2566940252220018e-03 -7.8460688294055437e-03 4.1378555055542271e-03  -6.7652979932813131e-03 -8.7005168539126768e-03 4.3018101258960172e-03  -5.1808501228941635e-03 -9.6001718078761473e-03 4.5390577385545534e-03  -3.4548634906217102e-03 -1.0505317642295073e-02 4.7858435342733726e-03  -2.5182935310947483e-02 3.2856636787442252e-03 -1.0222995209840526e-02  -2.4449925988093212e-02 -1.3563132059239088e-03 -1.0129700914430535e-02  -2.3229633997502268e-02 -3.0447462947657570e-03 -9.9640399085694255e-03  -2.1726535891760008e-02 -3.9513387796940216e-03 -9.5132194363109178e-03  -2.0378918984843404e-02 -5.0691241037156328e-03 -8.7096287101827187e-03  -1.9164575175328304e-02 -6.1018105623014624e-03 -7.5887653313245719e-03  -1.8167888721993736e-02 -6.8558769834530199e-03 -6.1821416544654085e-03  -7.7922806685006779e-03 2.0019292955902844e-02 1.7834721233909365e-02  -6.7289909199682819e-03 1.4369659910835714e-02 1.9050450841272319e-02  -5.9812646037959317e-03 9.9729574829041240e-03 2.0404721382949700e-02  -5.6508749709629092e-03 6.6093632228224845e-03 2.2062464537472310e-02  -5.0772512337493069e-03 3.3575227665578102e-03 2.4035281123400094e-02  -4.2473696793733440e-03 2.1811197823033644e-04 2.6258109084586648e-02  -3.1799963000960769e-03 -2.9068286971722168e-03 2.8715550781087402e-02  -1.4566743374549291e-02 1.9065640171454575e-04 -2.9954304260343103e-04  -1.5647427328145020e-02 2.7920062165738258e-03 -1.0966376685962436e-03  -1.3818343349593617e-02 4.1595682443292493e-03 1.6106857282454513e-03  -1.3789711384268825e-02 3.9635519224728540e-04 1.5684628445613166e-03  -1.5802541722892246e-02 -8.5659202387046061e-04 -1.2302708035052926e-03  -1.4816139401920031e-02 -2.9435149246908438e-03 -4.2568175257306384e-04  -1.3884069824303064e-02 -1.8340200940509907e-03 1.8393836077669470e-03  -1.5842344025769801e-02 -2.8661464837763757e-03 -1.1625953288662658e-03  -1.4616940861036452e-02 -4.5584391447855768e-03 -3.6306213710187932e-04  -1.3024593783161989e-02 -3.6341506688199608e-03 2.1878056319986627e-03  -1.4843385270531615e-02 -4.2543117603471353e-03 -9.6449320738817756e-04  -1.3367025900823802e-02 -5.5921049678545678e-03 -2.2942653008310078e-04  -1.1569284833720264e-02 -5.1035530963086401e-03 2.8079272235277913e-03  -1.3411383654626305e-02 -5.5055527317936573e-03 -4.9678916879949281e-04  -1.1829219796055024e-02 -6.5920204583775283e-03 1.1281940186122830e-04  -9.8763580456305376e-03 -6.6197291000914624e-03 3.7150189251269933e-03  -1.1797497340619601e-02 -6.7553565410262070e-03 2.4371969637445703e-04  -1.0135211363360416e-02 -7.6467741338798086e-03 6.3153891191364102e-04  -7.8685828134989130e-03 -7.9884511897158252e-03 4.7343404375506633e-03  -9.7486009210935760e-03 -7.8371045564980604e-03 1.1124056059604117e-03  -8.1998468727063865e-03 -8.6036085770274454e-03 1.2871273800838007e-03  -1.3327459149519912e-02 1.6775761799949135e-02 6.5352474492599687e-03  -1.2860371820631808e-02 2.3106633031777464e-02 9.8826045107564160e-03  -1.2498546575090195e-02 1.7720818084981063e-02 1.1187598492580940e-02  -1.2801538968808236e-02 1.1449626533293128e-02 7.2617899114272187e-03  -1.2146021676628153e-02 1.3251224202118479e-02 1.2753601434217140e-02  -1.2577207723966217e-02 7.4680139846098172e-03 8.2287957052518124e-03  -1.1837606118180150e-02 9.5577020028703181e-03 1.4678245684718346e-02  -1.2265152531047332e-02 4.3019194398846881e-03 9.4940590499366546e-03  -1.1309196360718372e-02 6.2749542167153888e-03 1.6983002532643801e-02  -1.1566301281141337e-02 1.4272359689130863e-03 1.1106069530464679e-02  -1.0340836227073272e-02 3.0904150523747283e-03 1.9601263389394608e-02  -1.0338486835172411e-02 -1.3254750005442665e-03 1.3096070596710844e-02  -8.8360527851217788e-03 -1.1406013585745013e-04 2.2467897505192944e-02  -8.5304613950766151e-03 -4.0417597784072577e-03 1.5334166848308673e-02  -2.3553853092804881e-02 -9.8897413364193668e-03 -1.1823940690371255e-02  -2.4572851715