<?xml version="1.0"?>
<VTKFile type="UnstructuredGrid"  version="0.1"  >
<UnstructuredGrid>
<Piece  NumberOfPoints="954" NumberOfCells="4082">
<Points>
<DataArray  type="Float64"  NumberOfComponents="3"  format="ascii">11.34256211003533 2.559963610454043 3.662915467942084  11.23041676328445 2.651653979168271 3.732827329951541  11.22654493170889 2.522080549939639 3.633936557215388  11.2271424548698 2.477950412016679 3.68647644053894  11.2316603871206 2.61342959716206 3.792986449823797  11.34344321932059 2.516540269140279 3.719197409562518  11.22683132920075 2.433268100843837 3.739509264215929  11.23210012896514 2.574863378073209 3.853805701071212  11.34349062990687 2.472472411856851 3.776051356920952  11.22632456455674 2.38806773681234 3.793078386235965  11.2324778456343 2.535774501879789 3.915195505496533  11.34338486626016 2.427893090400786 3.833572194690457  11.22595042096629 2.342372571446584 3.847169088995505  11.23306406960327 2.496233284094554 3.977182685592514  11.34336844321755 2.382831595205946 3.891820545401331  11.22588065665453 2.296166667219494 3.901752853016943  11.23407283180669 2.456215594717369 4.039769359013426  11.34360242476936 2.337248358748571 3.950832103395797  11.22636577811407 2.24940938010779 3.956835608451353  11.23579182069453 2.415617451933174 4.102895289599583  11.34433312903732 2.290924857888474 4.010715215094062  10.63466443309029 2.40110381633999 3.522723604796444  10.54725485047735 2.328993176542256 3.450128961523271  10.65740971157491 2.331263174391724 3.447750906643321  10.65785089364024 2.287970157534074 3.487698234413719  10.54902029292025 2.28633373622652 3.489751002849701  10.63481157850055 2.358947290965796 3.565806856580581  10.65771707645725 2.244525559934601 3.527690075171925  10.55032837056613 2.243588427443266 3.529381311506091  10.6343954821987 2.316676178983172 3.608932732674373  10.65738080905151 2.200892769570538 3.567713869408353  10.55144453506648 2.200720867997409 3.56901262536094  10.6337735883993 2.274234879891481 3.652088994909125  10.6571158270118 2.15708596171349 3.607770717177103  10.55261053759159 2.157727734358333 3.608629661761074  10.63321382074632 2.231625019926884 3.695274829941322  10.65714739735403 2.113133706437825 3.647882742113115  10.55402582199866 2.114645491168501 3.64824275701149  10.63294322088776 2.188865959600459 3.738510037514444  10.65769410288581 2.069062217600059 3.688092116352069  10.55592177287646 2.071504096343644 3.687875979450851  10.63319915499756 2.145966031957449 3.781832817129321  10.55628298005653 2.461316273715987 3.577027574823821  10.4831908517984 2.393471218342823 3.521098624464123  10.4857741404746 2.352520911544397 3.56380890360632  10.55723405817466 2.421283787296829 3.62283059818201  10.48794745811372 2.31151189872338 3.606511335892026  10.55768977446951 2.381185206872638 3.668652176921114  10.48994243107649 2.270408226064786 3.649200257331383  10.55794112602073 2.340949388052442 3.714483280270574  10.49197264968439 2.229196423413705 3.691857099826545  10.55822296253674 2.300573920768089 3.760317827225499  10.49421564570415 2.187913732434148 3.734486920285571  10.55873931681514 2.260094025655073 3.806159976305058  10.49689500404515 2.146617499675637 3.777100297460225  10.55973739471617 2.219555662144724 3.852020197454712  11.57694427130069 2.701959091411587 3.752444259497754  11.47891133233145 2.801560487550037 3.802305400844375  11.4681068195285 2.666909767148381 3.727083072094366  11.46729900872911 2.628688596814997 3.79086973838677  11.48068461839901 2.772353385882574 3.873380243952731  11.57537676465182 2.66571202929006 3.820491479202544  11.46609878518946 2.589401289770934 3.855203135081244  11.48191061046881 2.742370276458251 3.945036950091243  11.57371471728053 2.628569706782815 3.889309454882811  11.46510942643102 2.549622921309886 3.920395344389827  11.48317650644342 2.712203333444647 4.017435215938757  11.57238650508054 2.591025730560782 3.959005713009034  11.46435398105588 2.509649526574528 3.986459618830391  11.48449533496621 2.682096363835602 4.090695092559328  11.57143320208519 2.553492742389152 4.029612451278301  11.46380237222378 2.469511492739694 4.053396345840538  11.48589744362979 2.65177477402838 4.16485433866134  11.5704755094579 2.516051296199172 4.101034832687248  11.46342109662802 2.429156188136206 4.121480014072626  11.48785497134932 2.62092575890281 4.240049610454774  11.56950800317497 2.479180568419862 4.173686503933427  10.96015102626148 2.24476764532159 3.332605193699599  10.97133608475358 2.322232570414888 3.433243688480085  10.84736047586136 2.307854493063652 3.419897571549045  10.8478539060525 2.261469225959241 3.457705095317975  10.97190275004993 2.274791339147167 3.471971296781261  10.961627470762 2.196237782197406 3.36684059158195  10.84770464895464 2.214763217281008 3.495599772600215  10.971744257335 2.226916406948251 3.510789863764705  10.96248731883501 2.147317546381259 3.40102806037566  10.8473630509282 2.167754688386741 3.533593215156777  10.9713955416401 2.178658997693599 3.549780335531479  10.96316503121099 2.098057327643328 3.435368844408428  10.84713309123 2.120477544992053 3.571726116257813  10.97116780009625 2.130061638338414 3.588994675138483  10.96399275209431 2.048499342029388 3.469913123096842  10.84725050838665 2.07297060663925 3.610045757742301  10.97129518916429 2.081147600919325 3.628471237363068  10.96518550871988 1.998674646843764 3.504712023718087  10.84788935941648 2.025211585293154 3.648538077144551  10.97195212359921 2.031895946477884 3.668234072404974  10.9668445590167 1.948553711790464 3.539747262858032  11.19743606152493 2.924460951123327 3.863682866623614  11.1218940323388 3.044060303420383 3.880338226641348  11.09532023212082 2.915439758791479 3.856958806819461  11.09112934661492 2.896934617578685 3.927673317017779  11.11076467463587 3.013622769508598 4.180608982433681  11.19988870878425 2.858295727640284 4.16008789451013  11.0763021363637 2.840720248585022 4.143810679754251  11.08113753373887 2.859777246868817 4.071288214398636  11.201007441164 2.840968084861712 4.23563275831653  11.10833633596535 3.005385522218571 4.256904058196389  11.07182909956799 2.821319100158869 4.216742777197508  11.20285678337005 2.823324772528568 4.3115682968244  11.10640862693329 2.996835461749688 4.333431198721572  11.06783571356518 2.801610614099016 4.290052308863984  11.111338661408 2.603931407627285 3.700937210508366  11.11138103402832 2.564032907316586 3.756854141223573  11.11052572833579 2.52376115782404 3.813473377042377  11.10948837291228 2.48303511169377 3.870539337136218  11.10861516077439 2.441856626335174 3.92804459477413  11.1081262961732 2.400200922708723 3.985974142754576  11.10831548248506 2.357954111550768 4.04435073136652  10.82814780794954 2.237862688789833 3.328222401293788  10.82964544145707 2.191038008919653 3.362501003677856  10.83055738557071 2.143863802310904 3.396802763311708  10.8312788820499 2.096422361662588 3.431178772507587  10.83210454460437 2.048744399059906 3.465673757914985  10.83327209840294 2.000854053649681 3.500338002441995  10.83495631714372 1.952722866405791 3.535210000712967  10.99590131832242 2.667183912761411 3.743697142249931  11.00894829471487 2.557170516299885 3.668570607195092  11.00765022304195 2.516683168005676 3.721775791355416  10.99370551901126 2.630548105005758 3.801675193868071  11.00550135350706 2.475887190652232 3.775432498534585  10.99064149828743 2.593750463007338 3.860184444998419  11.00317250871224 2.434702899483114 3.829424783972728  10.98740262525774 2.556571512184684 3.919098703986928  11.00099468771735 2.393143547558628 3.883739729632233  10.98431484301641 2.519047333230071 3.978359464404167  10.99920134861257 2.35120476634134 3.938367184872984  10.98160338997068 2.48117017395989 4.037908205581781  10.99799350970947 2.308865549615402 3.993250828283929  10.97948463022573 2.442892381917607 4.097684766776819  11.46618780322006 2.474018099904171 3.58749821580792  11.34275019667294 2.451007298585803 3.566407370808347  11.3433502967663 2.401948034667151 3.614760033191668  11.46701199374217 2.423848565385487 3.638587173036723  11.34301694766881 2.352108518792078 3.663409434152228  11.46683237726445 2.372624873303039 3.689972845612852  11.34238704621252 2.301717567921824 3.712655071180107  11.46634062579481 2.320944077112729 3.742181040117805  11.34189165703889 2.250728653621713 3.762435454929811  11.46601323880985 2.268561441897495 3.794971377517592  11.34160734904361 2.19918288560303 3.812731434335227  11.46565556556824 2.215565403699849 3.848392637204505  11.34166248333207 2.147192547151444 3.863671322605801  11.46514972877693 2.161899367327969 3.902768461962622  11.33942664551487 2.759538181325618 3.787768851404315  11.34183981066864 2.72592249099198 3.853729611813945  11.34370029764655 2.691755919222033 3.920520894645199  11.34551995614745 2.657097227367063 3.987904004851524  11.34762742558213 2.622135511163692 4.055986391600079  11.35015035673586 2.586802163756406 4.124830872786459  11.35342161512545 2.550944970454594 4.19454403258246  10.44181539444125 2.477508863071608 3.597588423061135  10.35522496711082 2.372840902870155 3.514419245089863  10.36150471661226 2.332068587154308 3.555889130039863  10.44594760440062 2.4388576049347 3.64405948838986  10.44971401900184 2.400162659995479 3.690506525516652  10.36752931947376 2.291286093686942 3.597317339063786  10.45329671739187 2.361372874261888 3.73692721595241  10.37341401717198 2.250453492105694 3.638708566285687  10.45688690250551 2.32248233219086 3.783312916261361  10.37929747431206 2.20956764062116 3.680057304999411  10.46064780455571 2.283524043315617 3.82966651982758  10.38532867323845 2.168650489506581 3.721343492995683  10.46478204942752 2.244561260808111 3.875969914213658  10.39165838634134 2.127766756368403 3.762541290159273  11.0954723638665 2.811037948319765 3.822800507263602  10.97093964663555 2.870508524532141 3.834653419293678  10.96434990721256 2.85043925022649 3.902467892879363  11.09419464541603 2.783781320381613 3.889648745598826  10.9569164
[...]
<PointData  Vectors="f_16"> 
<DataArray  type="Float64"  Name="f_16"  NumberOfComponents="3" format="ascii">-5.7131411020136934e-02 -8.2392104584775860e-03 -4.6294769908646977e-02  -5.5526622318580104e-02 -2.0704178785274862e-03 -4.5107472566352107e-02  -5.4718207788630242e-02 -1.2758740651085529e-02 -4.3664211141071343e-02  -5.3889166896011177e-02 -8.5199511421140475e-03 -4.2490529784574356e-02  -5.4735878726590990e-02 1.6212270130371320e-03 -4.4804036487843632e-02  -5.6017919102667561e-02 -4.0688683575751611e-03 -4.5331172973337171e-02  -5.3076560753796839e-02 -4.5167093731127107e-03 -4.0992363406942921e-02  -5.3736716146353794e-02 4.5282005349380544e-03 -4.4325263019537001e-02  -5.4902514792368989e-02 -1.4556603483384896e-04 -4.4052429043574849e-02  -5.2241949312529734e-02 -8.3875281920833540e-04 -3.9270263345037380e-02  -5.2146435097293622e-02 6.5131156631260826e-03 -4.3545832787037053e-02  -5.3499639657814173e-02 3.1973333212247479e-03 -4.2560682773419560e-02  -5.1093404825851348e-02 2.2295616926744331e-03 -3.7342266387019818e-02  -5.0123423736489987e-02 7.9605288486080533e-03 -4.2446797911150115e-02  -5.1715104582139411e-02 5.8505858558367480e-03 -4.0836835663690167e-02  -4.9604102507882615e-02 4.6819591184782362e-03 -3.5180576843635472e-02  -4.8329899482919242e-02 9.3526694865343016e-03 -4.1134657626222933e-02  -4.9701952718538410e-02 8.0508755481523298e-03 -3.8868035600600252e-02  -4.8174435375286866e-02 6.8822068813599651e-03 -3.2744510060617037e-02  -4.6653152324051213e-02 1.0666815960574916e-02 -3.9645208051531995e-02  -4.7809721384410656e-02 1.0255060600771021e-02 -3.6579687629229848e-02  -4.4337169595712315e-02 -3.1186847849797760e-02 -3.3720838634795053e-02  -4.2262226071875672e-02 -4.1113840237071410e-02 -2.9667684377990791e-02  -4.4041709389820181e-02 -3.9914788658958346e-02 -3.0882592350258524e-02  -4.3137486466710270e-02 -3.5814952105442589e-02 -2.8339360262039585e-02  -4.1387402108397163e-02 -3.7000926834374968e-02 -2.7135348071139691e-02  -4.3497300191196422e-02 -2.6992102120777725e-02 -3.1757585875060834e-02  -4.2308879990254018e-02 -3.2068418426875814e-02 -2.5863633129792934e-02  -4.0560104416820550e-02 -3.3270140574102845e-02 -2.4690649476367055e-02  -4.2822937291352066e-02 -2.3136054629484610e-02 -2.9701850803038894e-02  -4.1573472790499631e-02 -2.8504759242417965e-02 -2.3310178128589619e-02  -3.9827551486458383e-02 -2.9716181360264219e-02 -2.2173166338518988e-02  -4.2239415138400474e-02 -1.9524505549528389e-02 -2.7493125616120540e-02  -4.0864709320181936e-02 -2.5019409466977151e-02 -2.0598810053877419e-02  -3.9127785297598118e-02 -2.6228207933391558e-02 -1.9498226933119062e-02  -4.1691526376675371e-02 -1.6069067885771234e-02 -2.5064902308809686e-02  -4.0105797568937930e-02 -2.1532718167023138e-02 -1.7649212304805078e-02  -3.8377500047121392e-02 -2.2720202039847762e-02 -1.6583577950126268e-02  -4.1101644170074024e-02 -1.2715985470831493e-02 -2.2342165078245668e-02  -3.9266681009666321e-02 -1.7961913957348800e-02 -1.4360219392655362e-02  -3.7533628258004027e-02 -1.9112172946792731e-02 -1.3346974077780282e-02  -4.0356896675427065e-02 -9.4558291300037428e-03 -1.9199922027980969e-02  -4.3498596398056692e-02 -2.5301900938098674e-02 -3.5236734597288613e-02  -4.1752770417178418e-02 -3.3327686060401762e-02 -3.2080760205304232e-02  -4.0983573605035108e-02 -2.9058200483580897e-02 -3.0130817475809535e-02  -4.2799017393804775e-02 -2.1044268796834124e-02 -3.3824320958646931e-02  -4.0270297385014288e-02 -2.5173978810370330e-02 -2.8101783287822198e-02  -4.2195597476036878e-02 -1.7121781308582180e-02 -3.2229832880165989e-02  -3.9678636107583529e-02 -2.1498334199625466e-02 -2.5927038691038115e-02  -4.1722082856998771e-02 -1.3523788974883455e-02 -3.0436699997229789e-02  -3.9134693305625586e-02 -1.7975070023538472e-02 -2.3548306206210019e-02  -4.1297241588627888e-02 -1.0184561634130364e-02 -2.8408897784655940e-02  -3.8546131576792979e-02 -1.4560601705464917e-02 -2.0880458505866260e-02  -4.0756094729693840e-02 -7.1793380811904957e-03 -2.6073840281665379e-02  -3.7814222303018771e-02 -1.1184858883862458e-02 -1.7806937769483052e-02  -4.0072633651075024e-02 -4.3910965541020036e-03 -2.3256843626996523e-02  -6.3129545530295192e-02 5.2303325928274736e-03 -5.3857119723993215e-02  -6.1453248543360789e-02 8.3379232724685066e-03 -5.0716226183051036e-02  -6.0594278165285745e-02 8.2943305175215397e-04 -5.0296463313634604e-02  -5.8792411471299093e-02 4.3532286880881678e-03 -4.9863506276372205e-02  -5.9019652902999882e-02 1.0465486538380331e-02 -5.0865047134988975e-02  -6.0457195164088373e-02 8.3098006696205318e-03 -5.3503091581472900e-02  -5.6726724151207532e-02 7.1989224576275729e-03 -4.9270246037769284e-02  -5.5939687350269995e-02 1.1452026317510907e-02 -5.0948949153895175e-02  -5.7459273565859212e-02 1.0526169224605772e-02 -5.3026306802924833e-02  -5.4205616430513727e-02 9.2988646025090188e-03 -4.8501766853566317e-02  -5.2728256165382535e-02 1.2072294726870983e-02 -5.0829081444616384e-02  -5.4010650655904019e-02 1.1951476036774919e-02 -5.2351314148553464e-02  -5.1421499036237744e-02 1.0919651400294300e-02 -4.7436380515277293e-02  -4.9781697983813024e-02 1.2741530994505784e-02 -5.0574830379832333e-02  -5.0723132918004669e-02 1.3245984148553583e-02 -5.1385761353720492e-02  -4.8838542056416898e-02 1.2491189859433427e-02 -4.6131589688705080e-02  -4.6991289115082227e-02 1.3357263535601660e-02 -5.0125213778151295e-02  -4.7710264884496610e-02 1.4585479990207503e-02 -5.0252447932003244e-02  -4.6348698014585771e-02 1.4083015274873094e-02 -4.4529705514741010e-02  -4.4184698470127806e-02 1.3897657162004950e-02 -4.9537039838275149e-02  -4.4749769395798382e-02 1.5972448457413028e-02 -4.8882918381255365e-02  -4.7161920593558747e-02 -4.8916943705821128e-02 -3.0093965222034093e-02  -4.8580948704506008e-02 -3.7993062745063012e-02 -3.4078663316495665e-02  -4.6613939664615148e-02 -4.0898418698275908e-02 -3.1898195951547005e-02  -4.5657548464008442e-02 -3.6953894723403026e-02 -2.9021185494836524e-02  -4.7620264213090298e-02 -3.3945393705234382e-02 -3.1233942816404806e-02  -4.6178028164964920e-02 -4.5374429731498953e-02 -2.6790137529556588e-02  -4.4786968699420171e-02 -3.3364266422544954e-02 -2.6252919703719353e-02  -4.6780403376956228e-02 -3.0245709404807735e-02 -2.8429192608067276e-02  -4.5248022910372138e-02 -4.2101677486244340e-02 -2.3704104668268132e-02  -4.4007565759557249e-02 -2.9933619386106239e-02 -2.3428599448478325e-02  -4.6033087014678273e-02 -2.6704318943854867e-02 -2.5550738903903969e-02  -4.4354741095329393e-02 -3.8912644141335308e-02 -2.0652294686714909e-02  -4.3226466797155215e-02 -2.6546282495590073e-02 -2.0459618369568083e-02  -4.5279856362119890e-02 -2.3225300152756839e-02 -2.2513635800470111e-02  -4.3448265045789296e-02 -3.5689042380325969e-02 -1.7522500753570036e-02  -4.2362677967010903e-02 -2.3110851351316658e-02 -1.7249799842534493e-02  -4.4444510035842461e-02 -1.9726082652052564e-02 -1.9223003210076171e-02  -4.2525393368608486e-02 -3.2326436485758822e-02 -1.4206559786484307e-02  -4.1427177165351152e-02 -1.9534257970347427e-02 -1.3681217142942967e-02  -4.3485982299914898e-02 -1.6125124498272157e-02 -1.5573027614617612e-02  -4.1560452311223475e-02 -2.8743675589909257e-02 -1.0570005003587155e-02  -5.5613797365960331e-02 1.0227673225976158e-02 -4.2721768260895319e-02  -5.4786649459145673e-02 1.2397226815293578e-02 -3.9574987362818517e-02  -5.3821679938188302e-02 9.1599243003777572e-03 -4.1231012231953398e-02  -5.2432481201245731e-02 1.0027754746967838e-02 -4.1444872389239988e-02  -4.7919666398260341e-02 9.3599607626575505e-03 -3.9581667959152751e-02  -4.7944904307635247e-02 9.8711302589841732e-03 -4.3068923019533932e-02  -4.7410555465746546e-02 8.9259871085486230e-03 -4.1214004425617422e-02  -4.9004733386577660e-02 9.2097892565450000e-03 -4.1436905074813304e-02  -4.6101152287878693e-02 9.5313846672665636e-03 -4.2954080215975257e-02  -4.6361319089849203e-02 8.4445917457183460e-03 -3.9466428593535115e-02  -4.5953938183786028e-02 8.5799905820237877e-03 -4.0930453169948637e-02  -4.4306382365922402e-02 9.0974886832815606e-03 -4.2878948973107185e-02  -4.4936925184030828e-02 7.4390348221802342e-03 -3.9401313789776606e-02  -4.4635866240604789e-02 8.0971228310688856e-03 -4.0679317985149441e-02  -5.3192443693044413e-02 -6.5018026310636962e-03 -4.3053775575106035e-02  -5.2671427203961806e-02 -2.5052891016798082e-03 -4.2497025626858691e-02  -5.2108649356464531e-02 8.9639903017043644e-04 -4.1742567788786045e-02  -5.1112293254080142e-02 3.4458389298316298e-03 -4.0704325298448009e-02  -4.9620783379768114e-02 5.2827069589080223e-03 -3.9365927314004637e-02  -4.8199532553316105e-02 6.8669047581091198e-03 -3.7774859978014622e-02  -4.7009243704034719e-02 8.3051123581854534e-03 -3.5965091061960816e-02  -4.5315957238899494e-02 -5.0962558634068601e-02 -2.8076846171200140e-02  -4.4331871049899496e-02 -4.7479724985923413e-02 -2.4867531719056743e-02  -4.3392426247250253e-02 -4.4230798527672338e-02 -2.1887261865608517e-02  -4.2481341813445705e-02 -4.1080781723092916e-02 -1.8966776129131419e-02  -4.1575874475743443e-02 -3.7897248162434991e-02 -1.5983440215548570e-02  -4.0648464539007188e-02 -3.4581082028852433e-02 -1.2829666597292729e-02  -3.9681300242105547e-02 -3.1032035634271524e-02 -9.3834550344372106e-03  -5.1481386780851256e-02 -2.7392097855869538e-03 -4.2058817093566687e-02  -5.1299716654405407e-02 -1.0751710743830018e-02 -4.1239195200349590e-02  -5.0867247231692891e-02 -6.6585792689268395e-03 -4.0454174863408715e-02  -5.1097913889500683e-02 1.0549681508631159e-03 -4.1773708649468298e-02  -5.0488777599074643e-02 -2.8816248892381533e-03 -3.9437602005398295e-02  -5.0475599315799799e-02 3.6657483255385440e-03 -4.1411871214983680e-02  -4.9956996970471110e-02 3.1777535402529092e-04 -3.8167665382293672e-02  -4.9367851471000465e-02 5.1351536363221182e-03 -4.0815833423442249e-02  -4.8981463650154877e-02 2.6988677939136421e-03 -3.6627508720791777e-02  -4.7999213574504672e-02 6.2063244938392100e-03 -3.9803794792042310e-02  -4.7686818217973700e-02 4.4544683027454932e-03 -3.4796981605634526e-02  -4.6831561556255119e-02 7.2489325689667206e-03 -3.8541869460632427e-02  -4.6742533165775417e-02 6.1238768263594031e-03 -3.2656197644903046e-02  -4.5925539994244750e-02 8.1050095971847268e-03 -3.7132219248171734e-02  -5.8404982248372726e-02 -1.4971062047095517e-02 -4.7135724346869912e-02  -5.5876079443857328e-02 -1.9059092895130313e-02 -4.4092792307313139e-02  -5.4684149856715207e-02 -1.4551683576484136e-02 -4.2012232150590183e-02  -5.6822794020927762e-02 -1.0324294763608678e-02 -4.5033446273549903e-02  -5.3580031639484285e-02 -1.0376391017295780e-02 -3.9686476984088587e-02  -5.5321439825198084e-02 -6.0920646364481948e-03 -4.2699961425209904e-02  -5.2541485830779701e-02 -6.4260449024597698e-03 -3.7179142446018859e-02  -5.3921229333808378e-02 -2.0776739672463333e-03 -4.0193348333788709e-02  -5.1565197229746243e-02 -2.6126956847422420e-03 -3.4480429709818627e-02  -5.2423897518426424e-02 1.6195446834971197e-03 -3.7505042843042798e-02  -5.0398536350455402e-02 8.6476766307612397e-04 -3.1544018335458598e-02  -5.0665612177371033e-02 4.8755136669455757e-03 -3.4566553698902408e-02  -4.8920490604695062e-02 3.8925870254805741e-03 -2.8311160736532125e-02  -4.8664026248077474e-02 7.8933254959930570e-03 -3.1253340731375409e-02  -5.8194991262229580e-02 4.8906905331772823e-03 -4.7240021133916968e-02  -5.6716452561230035e-02 7.5315199242699891e-03 -4.7310743192215635e-02  -5.4768279250863437e-02 9.0585191702076129e-03 -4.7304665603427894e-02  -5.2229181298122603e-02 9.8758348396395246e-03 -4.7097066942476382e-02  -4.9860697372091242e-02 1.0800013842697603e-02 -4.6578675796073069e-02  -4.7601376173299716e-02 1.1689346966521068e-02 -4.5871905079806999e-02  -4.5357554721752208e-02 1.2476214654859843e-02 -4.5038612401970504e-02  -4.1716259587660606e-02 -2.4241980133157873e-02 -3.4918709834945320e-02  -3.9401574234030456e-02 -3.6192652512781802e-02 -3.0136494115054650e-02  -3.8695465269158728e-02 -3.1863694855918029e-02 -2.8014076251504819e-02  -4.1006337150464971e-02 -1.9887737941740202e-02 -3.3667777642336527e-02  -4.0417232904457270e-02 -1.5883140811206096e-02 -3.2227996350677600e-02  -3.7975905637619406e-02 -2.7943658820413140e-02 -2.5901645811080329e-02  -3.9966923628518600e-02 -1.2216254115745218e-02 -3.0602439068410869e-02  -3.7363874428855547e-02 -2.4219279199330295e-02 -2.3666370123461559e-02  -3.9624986466381434e-02 -8.9524598103936804e-03 -2.8790458792693194e-02  -3.6828592889183998e-02 -2.0651466090454852e-02 -2.1248832405654516e-02  -3.9119106697134996e-02 -6.0750001897001971e-03 -2.6631476294291155e-02  -3.6244581416083603e-02 -1.7147645317124378e-02 -1.8539641102514909e-02  -3.8385021990495365e-02 -3.4612900615849035e-03 -2.3949074814735030e-02  -3.5466867905706481e-02 -1.3627762056245218e-02 -1.5423393885405938e-02  -5.3591925918727377e-02 5.7278896513234387e-03 -4.2544716207475818e-02  -5.1855950032153555e-02 6.6675139919613715e-03 -4.0446857777493649e-02  -5.0715809260970607e-02 8.5886211459708598e-03 -4.0630266085945992e-02  -5.2610800490770208e-02 7.9727035217248120e-03 -4.2741204774926288e-02  -4.9311056325006715e-02 8.3494019976370262e-03 -4.0632343191594512e-02  -5.0698133354342874e-02 9.5399012949478144e-03 -4.1524691702046430e-02  -5.1026398967703147e-02 8.2275172648055544e-03 -4.2808949068766665e-02  -4.7908405963547819e-02 8.1389892041554470e-03 -4.0481012305133887e-02  -4.9358633847669850e-02 8.4620363073916807e-03 -4.2589262420685017e-02  -4.6615960329367254e-02 7.9943014277135353e-03 -4.0145223157929684e-02  -4.7769919204050472e-02 8.7661879422278165e-03 -4.2161192070424826e-02  -4.5511466519860697e-02 7.7799284459889075e-03 -3.9697757036019937e-02  -4.6314690375614732e-02 9.0033181499273827e-03 -4.1627003079264174e-02  -4.4670137640553942e-02 7.4045391889172004e-03 -3.9251431398199525e-02  -4.4979608319059269e-02 9.0914592079467775e-03 -4.1111093284380874e-02  -5.2095433746071111e-02 1.0160260052833393e-02 -3.8585651099528120e-02  -5.0547420513114276e-02 1.0465182901304512e-02 -3.8741713516644086e-02  -4.6622313253924685e-02 8.2293347764559738e-03 -3.8323149601404788e-02  -4.5542426559528240e-02 7.4801864871551346e-03 -3.8030636938073813e-02  -4.4689743159939850e-02 6.6142558362622039e-03 -3.7777749914641494e-02  -5.0278979875308938e-02 -1.2199885575994887e-03 -4.1184707210941349e-02  -4.9914421196799112e-02 2.4843525205529228e-03 -4.0390048292269755e-02  -4.8769256510782365e-02 -3.0200011402376258e-03 -4.0448174325886273e-02  -4.8410257331258734e-02 1.0386356704936699e-03 -4.0299672129882932e-02  -4.9204310509759513e-02 5.7046275740021629e-03 -4.0494415825027781e-02  -4.9795278172590850e-02 2.5207581124378959e-03 -4.1060362627284540e-02  -4.7873462790608244e-02 3.8306591342083564e-03 -4.0089777307266254e-02  -4.8228820004679637e-02 6.7828238943785247e-03 -4.0548224457077287e-02  -4.9070938390701264e-02 4.7838727717293182e-03 -4.0858058014053067e-02  -4.6963752055511704e-02 4.9878349860559340e-03 -3.9728606473263831e-02  -4.6945081414214128e-02 6.8637370939176757e-03 -4.0331933861531284e-02  -4.7936207541023651e-02 5.6483891667285131e-03 -4.0441535853821722e-02  -4.5754780798851154e-02 5.6265377532203047e-03 -3.9020733063383578e-02  -4.5827550667734439e-02 7.0404771944126664e-03 -3.9841503112537348e-02  -4.6691446885979107e-02 6.3410909958781167e-03 -3.9677700195684076e-02  -4.4836129407279504e-02 6.2944743137739352e-03 -3.7968738328448257e-02  -4.4910726719127873e-02 7.1672875226404089e-03 -3.9153802797570740e-02  -4.5688690487196787e-02 7.0095231852655140e-03 -3.8618694272091601e-02  -4.4300471499608446e-02 6.8097506554860134e-03 -3.6689775148728468e-02  -4.4337844861189621e-02 7.1136905132287891e-03 -3.8375437559935124e-02  -4.5052220038658650e-02 7.5195917188716757e-03 -3.7426382292117789e-02  -4.9649037594336205e-02 -6.5646099351188911e-03 -4.0783238464922454e-02  -4.7701384507179867e-02 -9.2295457311773205e-03 -3.9756203437097522e-02  -4.9316353298941053e-02 -1.3797373360145176e-02 -3.9713353294195099e-02  -4.8886407351549636e-02 -9.6533964875600790e-03 -3.8814640442136457e-02  -4.7316974532967376e-02 -5.0080719869058455e-03 -3.9260413896070989e-02  -4.9304351209102919e-02 -2.4841346104237543e-03 -4.0360720589051956e-02  -4.8524796080846679e-02 -5.8319026098886395e-03 -3.7663184760368978e-02  -4.7051114258581696e-02 -1.2773766343885671e-03 -3.8645060119877873e-02  -4.8979520577680069e-02 9.1513058360184968e-04 -3.9818289910962132e-02  -4.8215143938507843e-02 -2.4336728629031561e-03 -3.6284518026169311e-02  -4.6664956212043751e-02 1.4130379749261038e-03 -3.7886692074111522e-02  -4.8347326477145944e-02 3.1097553473339967e-03 -3.9094978780687482e-02  -4.7580082640688609e-02 2.9158414169110276e-04 -3.4656509191497237e-02  -4.5733451898093254e-02 2.9967059539346137e-03 -3.6829793009206843e-02  -4.7103889407896206e-02 4.4344319928279500e-03 -3.8017873685038409e-02  -4.6505522201790994e-02 2.2414127919586722e-03 -3.2723272212946436e-02  -4.4723121854648010e-02 4.2226981244776265e-03 -3.5392582855062769e-02  -4.6047024767286754e-02 5.6113667727926550e-03 -3.6593370458553230e-02  -4.5702758574066436e-02 4.0577694794499738e-03 -3.0370118035029328e-02  -4.4144698070488389e-02 5.4129217405319389e-03 -3.3544387522934045e-02  -4.5377340680719275e-02 6.6880415873674442e-03 -3.4912361476722838e-02  -5.2599217242104028e-02 -1.6345160736444507e-02 -4.1406584364082691e-02  -5.1894879931850095e-02 -1.2053598712068216e-02 -4.0077106764599087e-02  -5.1276337567009257e-02 -8.0368987038192154e-03 -3.8430795684522921e-02  -5.0726464357628037e-02 -4.2678694690288076e-03 -3.6563155984174388e-02  -5.0044440510955614e-02 -8.7729829676091986e-04 -3.4492786819100452e-02  -4.9041390043156170e-02 1.8889476436223514e-03 -3.2173581802535052e-02  -4.7841855545927181e-02 4.1581155569646285e-03 -2.9528552629748694e-02  -4.8217620300584352e-02 -5.9287385388062774e-02 -2.8940381174133816e-02  -4.8236754941643888e-02 -5.3210638625105368e-02 -3.0243282160791689e-02  -4.6593854023865136e-02 -6.3690033703722282e-02 -2.5884135776976944e-02  -4.5703772684570536e-02 -6.1150114948990718e-02 -2.2655125840234845e-02  -4.7280380620188918e-02 -4.9927065263832192e-02 -2.6729864741753949e-02  -4.7355289139318343e-02 -5.6399707068008627e-02 -2.5410708174189629e-02  -4.4870711325136606e-02 -5.8616146404691753e-02 -1.9659532184359393e-02  -4.6369890782593737e-02 -4.6848067085044465e-02 -2.3457953609335967e-02  -4.6543830221634053e-02 -5.3592535213845091e-02 -2.2124953975142074e-02  -4.4069026530350927e-02 -5.6015599967430003e-02 -1.6790882583676545e-02  -4.5486291046524012e-02 -4.3802545852004764e-02 -2.0268278263229973e-02  -4.5759466920296317e-02 -5.0759532493394585e-02 -1.8953021900114969e-02  -4.3273006626713073e-02 -5.3275812566283630e-02 -1.3950443136321381e-02  -4.4600457262256865e-02 -4.0686097384988081e-02 -1.7041772567408613e-02  -4.4976127460559394e-02 -4.7807110264854950e-02 -1.5778244773298391e-02  -4.2456481482252402e-02 -5.0322970691796448e-02 -1.1043057090143985e-02  -4.3694974715313577e-02 -3.7403138876366038e-02 -1.3655764665595895e-02  -4.4166240095270426e-02 -4.4648616116189317e-02 -1.2482740655620004e-02  -4.1589879484705494e-02 -4.7071678631280964e-02 -7.9674521052695672e-03  -4.2752404701729099e-02 -3.3846128813702837e-02 -9.9816835353668601e-03  -4.3302223180154933e-02 -4.1205977637119612e-02 -8.9244860795259524e-03  -5.8577377661240167e-02 -2.3123084505728368e-02 -4.6564801398739766e-02  -5.6449772229005366e-02 -2.6267606657337191e-02 -4.3966285157178375e-02  -5.5031521513406692e-02 -2.1634404586865483e-02 -4.0877991530132905e-02  -5.6826662163384778e-02 -1.8170358702962530e-02 -4.3375312468045109e-02  -5.3780187984861200e-02 -1.7344369828988109e-02 -3.7749014889116993e-02  -5.5289956090598287e-02 -1.3678174674386650e-02 -4.0191377533616811e-02  -5.2612585109162210e-02 -1.3251199002405862e-02 -3.4526629058280224e-02  -5.3798401230449072e-02 -9.4110409190542536e-03 -3.6916161156361371e-02  -5.1436367232125170e-02 -9.2543711674862375e-03 -3.1145248462655189e-02  -5.230631117043294