<?xml version="1.0"?>
<VTKFile type="UnstructuredGrid"  version="0.1"  >
<UnstructuredGrid>
<Piece  NumberOfPoints="961" NumberOfCells="4160">
<Points>
<DataArray  type="Float64"  NumberOfComponents="3"  format="ascii">4.962784031710258 1.293045238675167 1.490551399308133  5.105886206246026 1.331693092184997 1.462177062742162  5.055082997187112 1.226162325459813 1.567558455624586  4.966610660549288 1.248503110515437 1.446405362401406  5.108774075814583 1.286803856881697 1.417618717373047  5.060253048729423 1.175310018832864 1.529138153213091  5.065426033657087 1.124467847239486 1.490731843009584  5.111621026850292 1.241921492504202 1.373058788594523  4.970440606088959 1.203962354472619 1.402261890831803  5.114455259866244 1.197037019583796 1.32849412604692  4.974276024554077 1.159419033082869 1.358119209772663  5.070599503634564 1.07363815742558 1.452339529027189  5.117296298941304 1.152148254223819 1.28392678357191  4.978125719527868 1.114872207586361 1.313979038325401  5.075778711794074 1.022818722008378 1.413960806182099  5.12016219722773 1.107254660765508 1.239358268704936  4.982005100079654 1.07031981843913 1.269840337600471  5.0809693432266 0.9720097422042466 1.375596551165643  5.123085246542178 1.062354715158384 1.194787122735284  4.985919124786845 1.025764160161407 1.225700351416196  5.086175052418638 0.9212059760869394 1.337235187417911  5.566766002724495 1.144823603117242 1.816405754110598  5.519953705433203 1.20487383832047 1.678270835802572  5.659319875850104 1.188117128223023 1.730200451804818  5.665949590037132 1.13219157317234 1.701581666106229  5.525185478883181 1.14992015942403 1.647659729030212  5.572453771992858 1.086465730737662 1.793226259957517  5.578130107379636 1.028096289102976 1.770038175130706  5.530371670483865 1.094955454272502 1.617016060807108  5.672579640539618 1.076272009661317 1.672933106757287  5.583806812010304 0.9697264103098755 1.746840156846531  5.535543811375545 1.039984193657171 1.586354801953545  5.679221305316328 1.020371565535936 1.644273010081553  5.589477909980356 0.9113549812895434 1.723645167683951  5.540713880182842 0.985008418236775 1.555694042196977  5.685857562706119 0.9644784403121364 1.61562602517811  5.545901301239079 0.9300227150736777 1.525046305186628  5.59513436583499 0.852978163243497 1.700472729196797  5.692485084527492 0.9085852061034614 1.587015870768711  5.551151034743182 0.8750274773498782 1.494412865701651  5.600794952215168 0.7946030235738967 1.677322880369505  5.69912709241704 0.8526813568669636 1.558431503903338  5.755497550682214 1.269757884438477 1.622533513531514  5.816670473971783 1.205905608718916 1.740783904975435  5.825031166646473 1.150860053679428 1.711412663378449  5.764020125239694 1.218327730389087 1.587885319636424  5.772676340763902 1.166923705773865 1.553178461649709  5.833528602659278 1.095842085152632 1.681995365691325  5.781389435926479 1.115531000680428 1.518455007776412  5.842085584189857 1.040844083440466 1.652561648931696  5.790096385313126 1.064133399166551 1.483734948979564  5.850631090535593 0.9858531971026894 1.623137913773353  5.79874720795094 1.012708850012136 1.449028115058556  5.859098304603876 0.9308458066415936 1.593736672956307  5.807306168591518 0.9612343566170012 1.414339932020516  5.86744862309561 0.8757937975145894 1.564345404684406  5.883059090624669 1.137895224835634 1.934830855661549  6.023297255103823 1.1413376489409 2.003269925340385  5.900891216163044 1.111851372647142 2.060767029333515  5.908047404876442 1.050472819937264 2.049575734450051  6.031714174878361 1.080538234090863 1.989206873678406  5.890173922159942 1.077424738457245 1.918739500626944  5.91522918125168 0.98909101856272 2.038340472957659  6.040236101312726 1.019754493165084 1.975058494009832  5.897321585885609 1.016968066033513 1.902588645536061  5.9224281724298 0.9277241056601926 2.02708048699599  6.048813911264243 0.9589830780559762 1.960876955065633  5.904497356348268 0.9565264702950781 1.886411476207545  5.929631722490503 0.8663720747795876 2.015823840411918  6.057396328469959 0.8982193901975323 1.946696210066441  5.911674923675391 0.8960962723920831 1.870238374216189  5.936832161817298 0.8050308259824741 2.00459390460032  6.065940599758904 0.8374442511611342 1.932541282508768  5.918834637141731 0.8356676656771582 1.854092873540234  5.94403623416447 0.7436841604626825 1.993408347077047  6.074428483299853 0.7766385584809929 1.918443101667992  5.925987740935224 0.7752203321688156 1.838001644721619  5.824902457826154 1.080152900234727 2.270116602782561  5.935493925129024 1.10113511888764 2.386574447069311  5.798084808677922 1.088336980341987 2.411883585660584  5.80461192900083 1.027100574696499 2.418108392665956  5.942185105816039 1.039625900895264 2.39197517797424  5.831639172282489 1.01799506971224 2.26985383389633  5.83835563515708 0.9558444471147667 2.269564438267259  5.948859496929239 0.9780955370608641 2.397344394066289  5.811124436627455 0.9658428243673466 2.424306964380847  5.845068522145448 0.8937131031120636 2.269261518336548  5.975642029731829 0.731972379702965 2.418805402249015  5.865267216253745 0.7074712886708474 2.268408895949522  5.837150079570955 0.7208239328033123 2.449078313865797  5.858510983036839 0.769533088103412 2.268672929942057  5.968907822858143 0.7934887654461745 2.413416608381823  5.919003195646338 1.112748370537206 2.515284455197738  6.06558889592373 1.12728545273027 2.479980311331555  6.072293978928005 1.066284093086069 2.489522071114206  5.925245580631906 1.05223663271548 2.526705907039303  5.743490794359405 1.150927521775793 1.846512203317038  5.883639684884012 1.16859939043848 1.834519173997916  5.891548708587728 1.110822310197819 1.81021100977658  5.749840268317966 1.09202857103592 1.825293115801425  5.756177318168287 1.033116023239252 1.80403374464408  5.899540180835147 1.053064684972929 1.785838415056634  5.762522859606936 0.974211378222761 1.782747915145824  5.907573048535892 0.9953433129717496 1.761451551475385  5.768873996278875 0.9153087387469154 1.761464726078013  5.915600317581638 0.937636915901226 1.737080366179789  5.775239304169983 0.8563987582069563 1.740208020821724  5.923589592463903 0.8799259920364467 1.71274725865428  5.781633232924776 0.7974690875339097 1.718998943887031  5.931544600021335 0.8221696009455606 1.688462782208694  5.011602369599272 1.376513607457877 1.326889699122215  5.013376009030097 1.337737620363916 1.27792445345651  5.015146345669648 1.29897360089677 1.2289617193855  5.17475973685284 1.262061136331378 1.541045113618986  5.257574274358129 1.357682085655226 1.443759722424068  5.295187253856896 1.245095836295718 1.575879035019611  5.2994123055227 1.193053730337563 1.53959890397133  5.260639071597836 1.313084590248081 1.39941822435555  5.179363841939786 1.21291398613239 1.500703683511309  5.18395671092665 1.163770438972408 1.460370905629114  5.263633032129657 1.268469248065807 1.35505536676576  5.303589449950363 1.141000967673911 1.503321529325372  5.188540300055253 1.114626381554183 1.420040010927942  5.266601790349345 1.223851066833398 1.310678180074824  5.307751528420413 1.088951923255923 1.467043418691633  5.311906092685938 1.036902900962335 1.43077013899701  5.269572388938928 1.179225090164242 1.266293501108932  5.19312471241465 1.065478478546874 1.379712686731196  5.31605694707517 0.9848541344590718 1.394508069479009  5.272572404296976 1.134587032283516 1.221902062966066  5.197715072291259 1.016327773681124 1.339392838840113  5.320236759379336 0.9328072576880548 1.35825830515219  5.275620697174676 1.089936966925992 1.177510858401414  5.202265067003569 0.9671867392984409 1.299062764701238  6.13526314562339 1.172371754815665 1.93583129096478  6.243584029000543 1.238077946583247 1.840096170865901  6.270909622678752 1.187845656146097 1.971458805503403  6.283818572156977 1.128621559731769 1.95168256519144  6.256000084937099 1.18230071501045 1.81278798572694  6.146191231887316 1.11320734431381 1.915377148449099  6.297040889962463 1.069530310603245 1.931819456598852  6.268725990621872 1.126690615939265 1.785402548536359  6.157359353018437 1.054131815811971 1.894838196641659  6.310377528383792 1.010533050810424 1.911945604903662  6.281588015183415 1.071194291498941 1.75801177794118  6.168618941221752 0.9951260921719006 1.87429016546413  6.323707661564138 0.9516038839451618 1.892098012180548  6.294459540586501 1.015773347770817 1.730658316098812  6.179861377750051 0.9361643825490334 1.853764345125439  6.336899446736825 0.8927189877685935 1.872301493422626  6.307210738268139 0.9604018116544968 1.703376073158021  6.190981434197973 0.8772170637043467 1.833282946790439  6.349745343741922 0.8337884699976434 1.85258064714803  6.319633785391818 0.9050123755972446 1.676199453370036  6.201896723891644 0.8182260489081112 1.812863390836406  6.161319603973583 1.148058959290464 2.058204429395575  6.323536437354083 1.165300598280368 2.106559275560409  6.171190167475372 1.125132760151518 2.185800867725833  6.179459600096286 1.062487086378115 2.179387051251198  6.336623746315049 1.104124743437274 2.093882375291355  6.17108677646196 1.08689170626088 2.044806007345929  6.187831040292981 0.9998544453556117 2.172909460616998  6.350019123382889 1.043049287162094 2.081127253936307  6.181034308329772 1.025761129990022 2.03130865670329  6.196248318354983 0.9372529662853557 2.166408663554634  6.363530469050583 0.9820474790477808 2.068352907332675  6.19106388692509 0.9646668183795711 2.017781576337922  6.20466259248289 0.8746782592570916 2.159915112929108  6.377045045269574 0.9210989072768504 2.055593674591141  6.20109509141226 0.9035961517474397 2.004260719965151  6.213036055911598 0.8121166388612195 2.153449501797849  6.390442905515418 0.8601877126382316 2.042871511235989  6.211058004749342 0.8425265105674011 1.990768689333883  6.221367199981843 0.7495375203336994 2.14701676320521  6.403498659571271 0.7992646025976395 2.030200804880288  6.220899420351214 0.7814187994379462 1.977336615166474  5.316582927540367 1.119113032858337 1.809852474501919  5.462651420968689 1.113589932722569 1.87801180860193
[...]
<PointData  Vectors="f_16"> 
<DataArray  type="Float64"  Name="f_16"  NumberOfComponents="3" format="ascii">1.1235478947583940e-02 -4.9105672584063190e-02 -2.2592759862594174e-02  9.8837779604715875e-03 -4.9732713635552032e-02 -2.1901132506898121e-02  1.0316135976098713e-02 -4.9973043029113463e-02 -1.5642373215909479e-02  1.1575772734652918e-02 -4.9198023037448524e-02 -2.0461648714462165e-02  1.0184496790569439e-02 -4.9809816079315471e-02 -1.9864794747780801e-02  1.0584234593215388e-02 -4.9398703109590984e-02 -1.3588829963082943e-02  1.0905503967181620e-02 -4.9106233562514631e-02 -1.1891388821321208e-02  1.0770074206710551e-02 -4.9970630749304024e-02 -1.8057509336751824e-02  1.2217737992352838e-02 -4.9363989676184515e-02 -1.8560593594479913e-02  1.1464323456631854e-02 -5.0297718158374909e-02 -1.6430299617917792e-02  1.2934118436485200e-02 -4.9733160044321087e-02 -1.6875138093050412e-02  1.1252782430217628e-02 -4.9075825194757651e-02 -1.0439073766117902e-02  1.2115180443287724e-02 -5.0803962650607909e-02 -1.4947979396369734e-02  1.3615258188134442e-02 -5.0298851180210977e-02 -1.5340128326602533e-02  1.1618443306784146e-02 -4.9301352735934632e-02 -9.1236792855978258e-03  1.2755441594253602e-02 -5.1533233751456561e-02 -1.3505658032116341e-02  1.4289612866956953e-02 -5.1104157706610580e-02 -1.3845015259828571e-02  1.1984236941844317e-02 -4.9793572059398446e-02 -7.8945691659085687e-03  1.3391214683659076e-02 -5.2545703787919312e-02 -1.2006476910544154e-02  1.4962613132540046e-02 -5.2214781071577655e-02 -1.2291515450714554e-02  1.2337418213659690e-02 -5.0576698369158700e-02 -6.7252709674664657e-03  5.7560453804732679e-03 -5.7779970196298568e-02 1.8088533481769261e-03  6.0568662074376427e-03 -5.4590959236882480e-02 -4.5902020662740841e-03  4.7634181505548604e-03 -5.6335424448217632e-02 -1.1462505991653423e-03  4.5146533742313043e-03 -5.4836305377881638e-02 -3.9569260657813311e-04  5.8827794634802900e-03 -5.3282702616836833e-02 -3.5216567525739729e-03  5.4085348747319193e-03 -5.6033729530971729e-02 2.0437810841802324e-03  5.0923132705565453e-03 -5.4687547361573684e-02 2.1335640482970058e-03  5.7709188046308696e-03 -5.2321349753981956e-02 -2.6619467091953731e-03  4.2834742223055713e-03 -5.3735035045685144e-02 1.1153918145968939e-04  4.8075260506314291e-03 -5.3680326801920600e-02 2.0949363613112322e-03  5.6933172091471838e-03 -5.1659585520023810e-02 -1.9885756371991995e-03  4.0960051685830232e-03 -5.2950774010893015e-02 4.5973877312662084e-04  4.5516711392890839e-03 -5.2975430848034202e-02 1.9478828774045409e-03  5.6408172185540353e-03 -5.1276103779915642e-02 -1.4479503680381617e-03  3.9406011090233964e-03 -5.2446494555513944e-02 6.8933792637035211e-04  5.6001821039507399e-03 -5.1151550096261648e-02 -1.0073257901485329e-03  4.3170751838429939e-03 -5.2542245648588150e-02 1.7032188345157038e-03  3.8091089455165447e-03 -5.2201878175526066e-02 8.3111905510547331e-04  5.5594096114571119e-03 -5.1276066376720074e-02 -6.3316016464595487e-04  4.1010138539419915e-03 -5.2363520151496791e-02 1.3802350747023141e-03  3.6931348731397118e-03 -5.2202567049353533e-02 9.1341021468463034e-04  3.7591481975359875e-03 -5.4937120968319562e-02 -5.8371713188412480e-03  3.2822589063835140e-03 -5.7438592689762272e-02 -1.1578647474901479e-04  2.9873187508200031e-03 -5.5966843365059013e-02 6.6180228628364790e-04  3.5917877151195568e-03 -5.3989801246782244e-02 -4.4585462639909054e-03  3.4866099348410547e-03 -5.3276007263554713e-02 -3.3864239557273496e-03  2.7328966030004793e-03 -5.4838664160773716e-02 1.1336612650100820e-03  3.4360972151760180e-03 -5.2799013645734909e-02 -2.5326216903554088e-03  2.5172106249487574e-03 -5.4025956067698125e-02 1.4220467715041470e-03  3.4264895046117547e-03 -5.2555931240126447e-02 -1.8103066623539014e-03  2.3443949582617665e-03 -5.3491482230060373e-02 1.5913216851472381e-03  3.4426463161090332e-03 -5.2551406572621542e-02 -1.1670503810933309e-03  2.2109634970577359e-03 -5.3216265528456541e-02 1.6847730037738609e-03  3.4766921555784468e-03 -5.2787574830766258e-02 -5.6446562974168208e-04  2.1180476854227278e-03 -5.3192124371729023e-02 1.7344380850705756e-03  3.2099886893658890e-03 -6.3210269664210658e-02 8.2365052120317878e-03  2.3324402648272824e-03 -6.6483334680528944e-02 1.1082055157369260e-02  3.5144128898793496e-03 -6.7773920192580536e-02 1.2876181992752395e-02  2.9622551999958762e-03 -6.5814787875684261e-02 1.1423559936833647e-02  1.7665694747834731e-03 -6.4468657151560110e-02 9.9808741412824448e-03  2.7250553761132656e-03 -6.1257017109798993e-02 7.5548028156540627e-03  2.4330504830723195e-03 -6.4256783602597539e-02 9.9940314795075348e-03  1.2414903933775094e-03 -6.2896059589599915e-02 8.9135266722463521e-03  2.2694011742273893e-03 -5.9773548573913503e-02 6.8807246575051028e-03  1.9367753391781274e-03 -6.3034879524740808e-02 8.5479340446862877e-03  7.6245193773627192e-04 -6.1685881769849141e-02 7.7886505540503406e-03  1.8514228008118425e-03 -5.8647477214791327e-02 6.1237799897703180e-03  1.4724472671419791e-03 -6.2106983111021086e-02 7.0502495646518832e-03  3.2740006664020425e-04 -6.0783443933861550e-02 6.5824120659805901e-03  1.4684474604107791e-03 -5.7820260309390414e-02 5.2681918124720881e-03  1.0408781177795954e-03 -6.1433995286151497e-02 5.4724310186840394e-03  -6.7559445856245893e-05 -6.0143260096966876e-02 5.2816506600264759e-03  1.1179490764250599e-03 -5.7250616898373033e-02 4.3065329750012361e-03  6.4192599575966754e-04 -6.0986912456022772e-02 3.7939183575197992e-03  -4.2699746626351638e-04 -5.9732013581536715e-02 3.8694281907782594e-03  7.9476220436487134e-04 -5.6911032612734384e-02 3.2321605383572689e-03  5.0442789040419551e-03 -7.5938776689240442e-02 2.0206401721586470e-02  4.9831051287450535e-03 -8.2455370383478707e-02 2.5114842385479074e-02  6.0840554229154385e-03 -8.2591812996105921e-02 2.5792388749990253e-02  5.4916976257316473e-03 -8.1504051485769155e-02 2.2640098101086935e-02  4.4137755183720926e-03 -8.1281985922145999e-02 2.2037867868490661e-02  4.4384325514861033e-03 -7.4378527402753927e-02 1.7622556702574843e-02  3.8573199960245364e-03 -7.3140049800266865e-02 1.5186169656965396e-02  3.8384103006175417e-03 -8.0311253626604365e-02 1.9191035884018898e-02  4.9117404419503127e-03 -8.0600482205801086e-02 1.9712208568254237e-02  3.2952443315950458e-03 -7.2161536433483109e-02 1.2802873640734919e-02  1.7453025984896253e-03 -7.8260994559997812e-02 7.9198378969501486e-03  1.7534661087451739e-03 -7.0510647962235301e-02 5.3423672560042783e-03  2.7201902487540819e-03 -7.8621004427406618e-02 8.2138729129949215e-03  2.2396979163726871e-03 -7.0860804676559086e-02 7.9359709147833919e-03  2.2344639764946272e-03 -7.8532717120173359e-02 1.0882030926867067e-02  5.9351722382198178e-03 -8.8653409587533871e-02 2.9839756824158698e-02  4.7814344800703804e-03 -8.8089418853188647e-02 2.8943107730988248e-02  4.2599166329528220e-03 -8.7234222410491974e-02 2.5600103911835637e-02  5.4120040902213909e-03 -8.7982523618451033e-02 2.6538395481910487e-02  4.2409536466931647e-03 -5.9721869415875935e-02 4.1758604403671160e-03  2.8778972702429343e-03 -6.0099879994875254e-02 4.1840136167154976e-03  2.4787972964364995e-03 -5.8241706676295017e-02 4.2989969632554626e-03  3.8163053881861433e-03 -5.7895814104365131e-02 4.1442559383988824e-03  3.4437809036252194e-03 -5.6498195117905298e-02 3.9998320284336149e-03  2.0996781743333496e-03 -5.6902381607381376e-02 4.1916928585466759e-03  3.1071109374719223e-03 -5.5455268050903610e-02 3.7420216587455541e-03  1.7748668823193484e-03 -5.5901587052729053e-02 3.9587990767023544e-03  2.8031572088108784e-03 -5.4707981875548962e-02 3.3744493222290393e-03  1.4919209639416072e-03 -5.5189807809243104e-02 3.6261323198748959e-03  2.5238161174639872e-03 -5.4224438396745983e-02 2.9075550878026745e-03  1.2439221313681763e-03 -5.4740522235725474e-02 3.2116673865156715e-03  2.2600679324721318e-03 -5.3986894974740116e-02 2.3451562687155738e-03  1.0242464590326662e-03 -5.4537729853805325e-02 2.7333150662163042e-03  1.1711853874452409e-02 -4.9937895727256439e-02 -2.7577530116403556e-02  1.2510302374067623e-02 -5.0534996892508476e-02 -2.5927071491450883e-02  1.3407928548884698e-02 -5.1186027588760064e-02 -2.4359759039013336e-02  9.0815309558548857e-03 -5.0518554521423981e-02 -1.5667799690422816e-02  8.4063421691043388e-03 -5.0402696205037581e-02 -2.0378711343646286e-02  8.0310206872756269e-03 -5.1666240964723102e-02 -1.2015624575925069e-02  8.1768918799723107e-03 -5.0878719320558798e-02 -1.0236921965971027e-02  8.6955296289247946e-03 -5.0422236742070983e-02 -1.8438831517552729e-02  9.3794602701776069e-03 -5.0052194331117336e-02 -1.3703378065975866e-02  9.7234931901128731e-03 -4.9796269954133561e-02 -1.2085539004509401e-02  9.2125502036068761e-03 -5.0525526238708651e-02 -1.6747762075575368e-02  8.3461408106529893e-03 -5.0374836629005930e-02 -8.7866045725364071e-03  1.0095850195698959e-02 -4.9778205508081444e-02 -1.0684633000615845e-02  9.8136480344999475e-03 -5.0791546074002707e-02 -1.5226010844856747e-02  8.5443865443657063e-03 -5.0127096506391612e-02 -7.5426388089958451e-03  8.7714986452964491e-03 -5.0126709591022334e-02 -6.4411205918002458e-03  1.0399270525254712e-02 -5.1226017826704301e-02 -1.3828561255288245e-02  1.0484351706137721e-02 -5.0002876095415628e-02 -9.4135585957017889e-03  9.0053513354634452e-03 -5.0380043215223082e-02 -5.4337351284798226e-03  1.0955369326644763e-02 -5.1872844886647923e-02 -1.2460444456507801e-02  1.0880025392986466e-02 -5.0482059715194878e-02 -8.2111406718989970e-03  9.2332125400850541e-03 -5.0912776058556125e-02 -4.4884381798815610e-03  1.1533446171606867e-02 -5.2805365036156175e-02 -1.1056934000077611e-02  1.1285862864310957e-02 -5.1247963798086972e-02 -7.0362196903361249e-03  1.0920813300249210e-03 -6.4566157729653531e-02 8.4892788567610504e-03  -1.4215697079616573e-04 -6.2316862457589974e-02 4.7457098247714550e-03  2.0850308322050215e-04 -6.6723754858211304e-02 9.9296811985324675e-03  -4.8394363304910855e-04 -6.4685800183559558e-02 9.2152195487045126e-03  -7.0565229334243625e-04 -6.0574920720362822e-02 4.9855334007266093e-03  4.9613073905894567e-04 -6.2570667025399915e-02 7.9923400118437193e-03  -1.0652860113189726e-03 -6.3099993480024846e-02 8.3665418846038623e-03  -1.1741447406416899e-03 -5.9157804362441321e-02 4.9592839753342241e-03  -1.0098517955786221e-05 -6.1060996593903058e-02 7.3497907858641161e-03  -1.5646089504087941e-03 -6.1861163520801329e-02 7.4066224410652259e-03  -1.5587918248632744e-03 -5.8057462668058925e-02 4.7603978017756966e-03  -4.5402908894174465e-04 -5.9903416489501864e-02 6.5888293780840242e-03  -2.0019672490184772e-03 -6.0920436871456693e-02 6.3585277380890370e-03  -1.8778384761872614e-03 -5.7250684374754564e-02 4.4428071000574606e-03  -8.4308613103981360e-04 -5.9039340125710757e-02 5.7340362231375168e-03  -2.3846345970057444e-03 -6.0247864290373945e-02 5.2314619083416967e-03  -2.1390376805357761e-03 -5.6718750706782992e-02 4.0457438777989421e-03  -1.1821992446120469e-03 -5.8438177013425366e-02 4.7962088913409357e-03  -2.7076533203325690e-03 -5.9826145065570026e-02 4.0275128352509366e-03  -2.3413083483482147e-03 -5.6448509333527762e-02 3.6021141861855071e-03  -1.4749263760964661e-03 -5.8088198758765183e-02 3.7793784005757691e-03  1.4944079024579316e-03 -6.9315479529867011e-02 1.3125039440509502e-02  6.2821085187154903e-04 -7.2387960061381804e-02 1.4885038266043519e-02  2.0812370909186972e-03 -7.4580135952790796e-02 1.7608570542904517e-02  1.4355891262374943e-03 -7.2668085968160739e-02 1.5474984503097927e-02  -1.6515847874842385e-04 -7.0368848976723991e-02 1.3293223571020307e-02  8.5467752067477606e-04 -6.7298467456499381e-02 1.1747628438497472e-02  8.3212057699810435e-04 -7.1203671559083082e-02 1.3363739068574588e-02  -8.3836059877065677e-04 -6.8742677933045726e-02 1.1625787167741635e-02  2.7417363837890758e-04 -6.5678837193819825e-02 1.0363354276279510e-02  2.6984944820832864e-04 -7.0068567325383371e-02 1.1267677455140849e-02  -1.4286901292055833e-03 -6.7461308309368029e-02 9.9161497278854888e-03  -2.5251717612481461e-04 -6.4424366338979910e-02 8.9332774733805621e-03  -2.5213090587352678e-04 -6.9197922458168651e-02 9.1397153506562745e-03  -1.9587397999344313e-03 -6.6476009576444159e-02 8.1546079399080658e-03  -7.2817347893830550e-04 -6.3475391408273477e-02 7.4373728740560353e-03  -7.3757201089776666e-04 -6.8559344983766937e-02 6.9401330955536078e-03  -2.4408327457218757e-03 -6.5749816532826119e-02 6.3283078087304195e-03  -1.1598407013862922e-03 -6.2786787477523309e-02 5.8619826688259798e-03  -1.1910371787118314e-03 -6.8139067361876457e-02 4.6398188648808019e-03  -2.8763058173327657e-03 -6.5249722147446648e-02 4.4287444517396302e-03  -1.5542755385986472e-03 -6.2324044094685921e-02 4.1954644072187113e-03  8.1278002708828710e-03 -5.5561432163334826e-02 -5.9473188806830871e-04  6.8770805894414035e-03 -5.8640686431324439e-02 3.6081719744148755e-03  8.0424913545573025e-03 -5.9943325808956012e-02 5.8914559781820391e-03  7.4282566308093096e-03 -5.8023119469728823e-02 5.3138256727930299e-03  6.4158822055855507e-03 -5.6775121566827645e-02 3.4382609974665289e-03  7.7502288317748040e-03 -5.3859866438817315e-02 -1.6098353455218077e-04  6.8926035916033190e-03 -5.6482051438338725e-02 4.6847811941994671e-03  6.0099741822594779e-03 -5.5326259861602549e-02 3.2376023131385056e-03  7.4343746978277796e-03 -5.2591030570824010e-02 1.1820554055980362e-04  6.4117194647644671e-03 -5.5296338155486055e-02 3.9879549582404316e-03  5.6459383516574545e-03 -5.4227861131832124e-02 2.9310638937378093e-03  7.1668440700746348e-03 -5.1662366511007314e-02 2.5995919869785221e-04  5.9718291459122880e-03 -5.4425352745866747e-02 3.2133344629906050e-03  5.3133742381061234e-03 -5.3438386521456556e-02 2.5183770720609666e-03  6.9323203768242745e-03 -5.1036752809981642e-02 2.8849311787718253e-04  5.5637875244686592e-03 -5.3832649075019556e-02 2.3538429352317450e-03  5.0036016584433154e-03 -5.2923881754943829e-02 2.0019208498095378e-03  6.7208420285221684e-03 -5.0690139366176348e-02 2.2031505902876534e-04  5.1865948702746857e-03 -5.3497158858636921e-02 1.4038515491350565e-03  4.7033326376289281e-03 -5.2659128507847333e-02 1.3810913350025681e-03  6.5302233280166277e-03 -5.0614485980634408e-02 6.0314317391016937e-05  -3.3850824869349088e-04 -7.3480830002043654e-02 1.5136230934975025e-02  8.6252821540883865e-04 -7.8320047426246750e-02 1.9333734363076602e-02  2.1384985137318564e-05 -7.6490597616637027e-02 1.7006573746709996e-02  -1.1314829127259181e-03 -7.1450792291698942e-02 1.3486812798338615e-02  -1.8054305484980584e-03 -6.9779113981863053e-02 1.1836480648709942e-02  -6.8576256111043375e-04 -7.5083288372616921e-02 1.4676969740834642e-02  -2.3946102040586022e-03 -6.8447433057511539e-02 1.0140009223617463e-02  -1.3087762862140657e-03 -7.3975378032969691e-02 1.2363192239984732e-02  -2.9268034344107088e-03 -6.7408364814393607e-02 8.3792413498293607e-03  -1.8827830282652320e-03 -7.3116650010285791e-02 1.0021267207436785e-02  -3.4245257346091750e-03 -6.6628734629070471e-02 6.5401864353541866e-03  -2.4208217795393329e-03 -7.2484311469008203e-02 7.6126050203550325e-03  -3.9028477585097451e-03 -6.6100954236813420e-02 4.6062629549162284e-03  -2.9205466724356510e-03 -7.2078572150438877e-02 5.1202531581769533e-03  5.4888546768049511e-03 -6.1318771851751511e-02 6.8393279210742248e-03  4.3386985723330536e-03 -6.4326607932775962e-02 9.8217380741474122e-03  3.8312475916990555e-03 -6.2394894436797563e-02 8.8270068766450310e-03  5.0096672373370803e-03 -5.9387562228455135e-02 6.2887849922682914e-03  4.5635461295637763e-03 -5.7888172168545374e-02 5.6456981992651055e-03  3.3506658470112854e-03 -6.0856936862825069e-02 7.8353053981261196e-03  4.1508505583771988e-03 -5.6741716746355579e-02 4.9396207926415588e-03  2.8980104933852241e-03 -5.9663691535916878e-02 6.7924631623993764e-03  3.7655291034685338e-03 -5.5894698347214090e-02 4.1537241215273812e-03  2.4742730209987890e-03 -5.8768729782432340e-02 5.6753754957235680e-03  2.0801327135763102e-03 -5.8133897991085322e-02 4.4667297537080222e-03  3.4046689955084045e-03 -5.5312798007313264e-02 3.2756308587761074e-03  1.7123372965042816e-03 -5.7730053931707978e-02 3.1501979649621102e-03  3.0629432043992226e-03 -5.4971201153611225e-02 2.2993830131268120e-03  4.9644718613983622e-03 -5.2053618655177436e-02 -1.6398058630445477e-02  3.4234737788225249e-03 -5.2801176242971766e-02 -1.5389460015911157e-02  4.2384271487845640e-03 -5.3260120083073001e-02 -1.1162631457802287e-02  4.2543089791961392e-03 -5.2790755489979337e-02 -9.4445468143980020e-03  3.4273498137368276e-03 -5.2837766532391285e-02 -1.3805665823676606e-02  5.0609838045375067e-03 -5.2062926107849322e-02 -1.4696406508546268e-02  4.3556009362325518e-03 -5.2483144991537799e-02 -8.0805057705229597e-03  3.6337777566346294e-03 -5.2819174697514848e-02 -1.2416024904551383e-02  5.3577294193218996e-03 -5.2068883365445608e-02 -1.3235486601315894e-02  4.5005170735128719e-03 -5.2341909366770738e-02 -6.9187863118629995e-03  3.9054002408928259e-03 -5.2874151511792589e-02 -1.1171124692338842e-02  5.7215628401703078e-03 -5.2172387495147722e-02 -1.1926001213963987e-02  4.6720291208701969e-03 -5.2390798838134252e-02 -5.8655881992045120e-03  4.1883079696472866e-03 -5.3065993749411122e-02 -1.0003817948123441e-02  6.0842611685274061e-03 -5.2428141699790418e-02 -1.0708640305716272e-02  4.8603616775055140e-03 -5.2660939712194890e-02 -4.8533861660332005e-03  4.4662201058441675e-03 -5.3435946545156009e-02 -8.8456670866183598e-03  6.4385594713243424e-03 -5.2881715125629787e-02 -9.5084052481767805e-03  5.0637097034555503e-03 -5.3192773913725788e-02 -3.8379137082228633e-03  4.7119793216828607e-03 -5.3996349904927354e-02 -7.6376365700461021e-03  6.7865454418338887e-03 -5.3555172229000969e-02 -8.2631135447506915e-03  5.5525320942750086e-03 -6.6125781050767662e-02 1.2026341656490984e-02  4.9795204199883369e-03 -6.4222735649354407e-02 1.0601053111587811e-02  4.4417978109088894e-03 -6.2662287435539893e-02 9.2247243245970768e-03  3.9345611215857576e-03 -6.1440089906160580e-02 7.8311532120044075e-03  3.4534507054114591e-03 -6.0510098843886112e-02 6.3855605831998332e-03  2.9972303778758439e-03 -5.9834125669080508e-02 4.8633528219890832e-03  2.5630679755818471e-03 -5.9375839304431743e-02 3.2431742231664204e-03  4.4814627074034235e-03 -5.1914098938561797e-02 -2.0003463433232591e-02  4.5525210514493512e-03 -5.2148506220300095e-02 -1.8679097068837486e-02  4.8375272419076019e-03 -5.2338095772998659e-02 -1.7433441517677666e-02  5.2443112521679096e-03 -5.2550634433594132e-02 -1.6231665471246680e-02  5.6520698740637363e-03 -5.2826724595674224e-02 -1.5053102968700285e-02  6.0112714639218526e-03 -5.3214698639374371e-02 -1.3847195644572211e-02  6.2402194662476212e-03 -5.3737547772150916e-02 -1.2593619572632988e-02  4.8957226523478137e-03 -5.4408244147809939e-02 -5.9946932128015088e-03  4.7537056599393354e-03 -5.3380931619522821e-02 -4.6685011588926371e-03  4.6816540012947954e-03 -5.2616807292696417e-02 -3.6388688921458472e-03  4.6488701319454487e-03 -5.2114099642317918e-02 -2.8089534693284050e-03  4.6457829307535291e-03 -5.1864420638488541e-02 -2.1113363766816738e-03  4.6644080125448099e-03 -5.1861880439316096e-02 -1.4954349377651185e-03  4.6962737741442166e-03 -5.2100891368591168e-02 -9.2319488159845170e-04  -1.7785865109304431e-03 -5.6930483033695647e-02 1.1530609274663180e-03  -2.8755436556016710e-03 -5.6523145166558521e-02 -3.9714895398850945e-04  -1.6904369122000861e-03 -5.5348338782453189e-02 -3.7347045712248514e-03  -1.5002269267504404e-03 -5.8013678942873070e-02 5.3908179133156577e-04  -1.7236627956962369e-03 -5.4907731479926863e-02 -2.8815292162633088e-03  -2.0031610551838040e-03 -5.6101219260308498e-02 1.5578132497307327e-03  -3.0184559241568250e-03 -5.5790401719471631e-02 1.7071930646472819e-04  -1.7239770905008421e-03 -5.4653669431044431e-02 -2.1374377678326241e-03  -2.1756470531813111e-03 -5.5523583077099890e-02 1.8337235269873171e-03  -3.1270154014367648e-03 -5.5292917630056143e-02 6.0302119502357186e-04  -1.6797105863835522e-03 -5.4634407266834974e-02 -1.4276984386107062