<?xml version="1.0"?>
<VTKFile type="UnstructuredGrid"  version="0.1"  >
<UnstructuredGrid>
<Piece  NumberOfPoints="932" NumberOfCells="3950">
<Points>
<DataArray  type="Float64"  NumberOfComponents="3"  format="ascii">6.918415688494489 1.342291281204931 1.78675641445025  6.870668226604906 1.304320388270824 1.875220355999042  6.814789887347318 1.353323796106977 1.762682499087119  6.816369599106427 1.29268514894722 1.734022409945216  6.874024211251125 1.240290755089247 1.853793687887143  6.918397721127083 1.280534828936567 1.760772854251563  6.877208014272616 1.176370813957901 1.832341795267029  6.918102701924384 1.21888531108611 1.734763703683339  6.81772493046383 1.23221632309025 1.705323681235388  6.917690533370862 1.157322920943074 1.708770125492908  6.880307690830349 1.112559998861172 1.810900631994961  6.818984036203301 1.171855305672971 1.676635360219514  6.917262798780683 1.095834157524221 1.682813271224162  6.883407406952685 1.048839900364557 1.789493327082652  6.820244221321617 1.111580839328489 1.647987814709853  6.916913545023544 1.034398309214658 1.656905236708547  6.886594258627589 0.9852113428875742 1.768144119153902  6.821617369919287 1.051369784790754 1.619402593573405  6.916759417494692 0.9729773418505598 1.63103656591355  6.889936372629981 0.9216168395391917 1.746833298618195  6.823247104645914 0.9912132699966306 1.59089701585272  6.255082385731794 1.566473477337143 1.435630949835534  6.275002010296897 1.690663204916957 1.353010448185869  6.376775037871307 1.635959540067177 1.40554488535917  6.38416800755081 1.600744863658552 1.356028033474773  6.283996371635302 1.658002326306654 1.303133492298425  6.293197301815034 1.625421749358413 1.253431246722047  6.27364656475822 1.491143008196747 1.341452511140558  6.391690980661442 1.565669861567606 1.306706433267877  6.302550088074621 1.592960204761974 1.20383678762928  6.283210235156846 1.453693452495211 1.294506408250718  6.399336415039286 1.530731787135682 1.257497343118414  6.292796321852919 1.416325957935642 1.24766772937297  6.311933057863657 1.560592170862288 1.154379353223212  6.407022133606283 1.495875807173152 1.208404450824032  6.302267184542239 1.379024669902349 1.20097314643551  6.321220412273778 1.528273037724109 1.105053413924843  6.414662304536792 1.461098253737708 1.159494981803283  6.311425656802648 1.341749469512329 1.154456080600428  6.330190793608695 1.496002735422186 1.055911422946877  6.422106674469466 1.426414732375662 1.110836138668561  6.370142224470033 1.640945212756055 0.9749623108460997  6.256690422743075 1.710775936506654 0.9200054559464246  6.213077794410689 1.578873326829883 0.9850190553148758  6.362021348657262 1.670975207165629 1.025143868334318  6.399407468720925 1.371400472671183 1.668192085021196  6.27736734547757 1.405805006640331 1.593518731302049  6.394446678056792 1.448897459389938 1.56391136550219  6.402013722532634 1.40373104649299 1.520852134123718  6.285978070269195 1.358611652002643 1.553680669606272  6.407849726845731 1.320234655256392 1.632077100934915  6.409760658291209 1.358806379837016 1.477826920773256  6.294822097268161 1.311634010218779 1.51384348155154  6.416468258561867 1.269296709881409 1.595933866714303  6.417605886042821 1.314045520947972 1.434869309217113  6.303789443905083 1.264805913064749 1.474060720876272  6.42518716073932 1.218518896289959 1.559816866751533  6.425490120852493 1.269396823069324 1.392019954590381  6.312781586976456 1.218073647939037 1.434358367525118  6.433941144578889 1.167848716526569 1.523768504598063  6.433356168059331 1.224848159167062 1.349346337155369  6.321687545730988 1.17141364609113 1.394783022404374  6.442664008860942 1.117271930636397 1.487843956384546  6.441008778484916 1.180380721880215 1.306905054308686  6.330363643918145 1.124824675385418 1.355402356874943  6.451234115683985 1.066816277539306 1.452131741925589  6.727576583872723 1.305239663665317 1.847348825110546  6.731106801930526 1.243665921970429 1.823040414571729  6.734479226638895 1.182254893531887 1.798680531306569  6.737799335166249 1.120965935520514 1.774325882183002  6.741126975888909 1.059786201367574 1.750008289001055  6.744546423011216 0.998737179689035 1.725761980979184  6.748322748292011 0.9378039284172851 1.701632684428622  6.488718910873065 1.587031610085069 1.457830120654309  6.485178574600392 1.679346238605477 1.389133158109627  6.489947027474532 1.645225150307146 1.338025736212638  6.493943502059325 1.548026159965623 1.409514116843837  6.494743916325944 1.611217774290675 1.287121471785315  6.499208887081362 1.509196829518136 1.361340872613457  6.499602099790047 1.577337277843625 1.236364809485948  6.504542982735749 1.470517249882245 1.313280284143344  6.504497241593102 1.543546869345791 1.185752532549311  6.509916149499253 1.431932193799958 1.265345439250489  6.509413397948987 1.509843036672293 1.135324766579526  6.51531734986238 1.393432892013745 1.217580148742847  6.514303000845648 1.476247577918677 1.085173991364418  6.520719048040111 1.355059337615398 1.170093850358279  6.919935994666382 1.656715491140761 1.388551807442606  6.813700877555132 1.654982659833158 1.408156181718905  6.889247436518016 1.735928278239675 1.3364980763142  6.879775204946228 1.700026409352153 1.285130531607466  6.808511145664947 1.616169086572886 1.357029077819834  6.910788164735791 1.616842868082017 1.339113455399254  6.86995585666985 1.664189071248751 1.233954469553713  6.803050548352581 1.577485643239917 1.306058059375796  6.901274562967308 1.57706535945285 1.289846408042878  6.859932933639044 1.628393613285344 1.182950988509245  6.797443661823501 1.538875282517544 1.255249298023814  6.891577411785214 1.537335296372076 1.240725367155564  6.849885160583908 1.592645859249751 1.132072346269014  6.791832967183504 1.50032516514365 1.204575474962905  6.881867432316049 1.497656482797607 1.19171913234838  6.83999734942337 1.556966288721719 1.08129983441048  6.7863696400936 1.461848970954788 1.154023354517917  6.872314601660951 1.458056735027089 1.142815434282112  6.830533425397327 1.521400758693508 1.030619078593029  6.781201416811379 1.423477908509344 1.103624615550264  6.863170346728377 1.418580169244189 1.094022137944291  6.292290217831377 1.318900130748111 1.71719331846123  6.302735243347526 1.266976336830907 1.683214262507399  6.210443347371302 1.438601153303761 1.071877960090587  6.384673550882078 1.540588801084552 1.483063227413689  6.392280736055018 1.500712678588593 1.436276639453335  6.400037445520433 1.4610538981412 1.389658506749403  6.407912258570033 1.421541023976316 1.343117771097263  6.415828046465719 1.382124133955607 1.296685901254784  6.423706963596663 1.342777577322626 1.250405634423109  6.431409676448158 1.303527792442964 1.204383198499023  6.778192244004611 1.769165336474852 1.331800305760797  6.771848788916561 1.733830838441158 1.279613342019775  6.765254797225357 1.698612932757307 1.227626555980954  6.758489261924598 1.663450053232139 1.175823716282997  6.751697532225162 1.628343488622229 1.12417539046443  6.745038174161222 1.593321989722544 1.072671393691994  6.738756240015112 1.55842204085347 1.021315117222281  6.809348647138408 1.259988516005918 2.53309452583414  6.677060894674963 1.251088968878199 2.587808869884199  6.732919262886483 1.236984642520964 2.455451438705239  6.742537990473846 1.173968907782533 2.465680971027068  6.687252764545717 1.190577689369599 2.605190546968829  6.818412007433365 1.19740842793528 2.547513086384563  6.752174070868327 1.111006367166735 2.47585572232122  6.320169251675521 1.82237575064023 1.278557694399314  6.389559412229069 1.726885868870372 1.350311940624046  6.39612423286353 1.694739601378645 1.299324214090819  6.328343923542668 1.79196847506291 1.227537339480045  6.336689670173165 1.761587406334808 1.176697570520928  6.402799812808304 1.662703404197053 1.24859875529472  6.409573588937445 1.630768283356456 1.198008589655448  6.345136121506139 1.731307385250476 1.126043312971966  6.416386401229776 1.598918426274916 1.147551108571288  6.353616563716107 1.701102539070005 1.075515376586734  6.423160759308437 1.567134859263853 1.097241411645095  6.429765699095309 1.535444526645679 1.047142899129221  7.249902970073125 1.282343144047316 2.162375927627457  7.249119055532 1.281099384657862 2.263516337704536  7.132164775588601 1.269730520906668 2.238052850099848  7.138541266854752 1.204913883875676 2.23864529113532  7.255220423605288 1.217140932188291 2.265930945714035  7.255918065039777 1.218156169174511 2.160378267751229  7.144834179725774 1.140155269423187 2.239256989777027  7.261220093623837 1.153232130400486 2.268394845242873  7.261823737498879 1.153990096783835 2.158431324738157  7.151067910851202 1.075440612461882 2.239881005536365  7.267153845558549 1.089362990344641 2.270874379728534  7.267654094713264 1.089852723699428 2.156504270607675  7.157258182191017 1.010768271965425 2.240509550829115  7.273041406207619 1.025532819663949 2.273359773125784  7.273444085641991 1.025748775329087 2.154586487025029  7.163411140567601 0.9461439396753286 2.241133969118847  7.278898622855486 0.9617523074792121 2.275842901273426  7.279231632893699 0.9616849991363243 2.152669723916386  7.169516536320951 0.881581876781856 2.241744525693525  7.284767548444566 0.8980404170826646 2.27829671036171  7.285053694528301 0.8976786367117764 2.1507344681058  7.152065609144061 1.276375610404425 2.095350398894925  7.156563074517218 1.211395907729719 2.08905447514866  7.160899415981438 1.1464572010299 2.082790058149781  7.165148476712028 1.08156152706978 2.076542767242397  7.169356530695207 1.016709628215358 2.070305771305074  7.173564122008955 0.951916716014265 2.064074547021268  7.177860935530774 0.8872011716241515 2.057841418905168  7.20171463712837 1.285402893763407 2.35799098593728  7.208049120836899 1.221858378789534 2.364395505738853  7.214310323970917 1.158357843813938 2.370849911129554  7.220519031127771 1.094898911687455 2.377316016779236  7.226682889858678 1.03147325803308 2.383783923990276  7.232805368767949 0.9680768670147351 2.390243348902491  7.238911718659836 0.904723704703
[...]
<PointData  Vectors="f_16"> 
<DataArray  type="Float64"  Name="f_16"  NumberOfComponents="3" format="ascii">-7.1008692032944656e-03 -6.4530647794993706e-02 4.6908810546132402e-03  -5.9565699879058562e-03 -6.7446629185791543e-02 7.7829066790280361e-03  -6.2417702351679864e-03 -6.3244647191322487e-02 3.4047692119113697e-03  -6.4619379925936228e-03 -6.1261532343784099e-02 3.4966155827980713e-03  -6.3340375537535697e-03 -6.5282448901225990e-02 6.9960328187068628e-03  -7.3409631574310186e-03 -6.2436890254422624e-02 4.4054542857340246e-03  -6.6861382324583177e-03 -6.3572623240084572e-02 6.1065605208056057e-03  -7.5757561978846907e-03 -6.0792946408890242e-02 3.9717131198181068e-03  -6.6743603462425119e-03 -5.9688894438779526e-02 3.3831137751851978e-03  -7.7978989078619273e-03 -5.9512593389646380e-02 3.4147807343140918e-03  -7.0212723471063734e-03 -6.2211093975176143e-02 5.1170522077395230e-03  -6.8839605187012336e-03 -5.8469287461349988e-02 3.0985662773157659e-03  -8.0211474423181276e-03 -5.8533271173929757e-02 2.7467978850039178e-03  -7.3520351142345036e-03 -6.1153113325265157e-02 4.0288245115214236e-03  -7.0953479986011880e-03 -5.7551186652077611e-02 2.6812073861724323e-03  -8.2542889473444323e-03 -5.7818311749431771e-02 1.9813810443477355e-03  -7.6910491684257397e-03 -6.0359135687110085e-02 2.8373933870839778e-03  -7.3191951228665300e-03 -5.6901391884871484e-02 2.1545016648125293e-03  -8.5056237004695889e-03 -5.7330681305903061e-02 1.1258614246646866e-03  -8.0424572594247293e-03 -5.9802879521782551e-02 1.5455206457659681e-03  -7.5640864086894966e-03 -5.6493627641766790e-02 1.5383226513238603e-03  -1.8354934654207676e-03 -5.4159050771284092e-02 -1.4454844346667151e-02  -2.1846824201066112e-03 -5.3023837343168893e-02 -1.8395110355053215e-02  -3.3477568214864335e-03 -5.3716438791017500e-02 -1.5626463970026795e-02  -3.2172933992074835e-03 -5.3779238328859391e-02 -1.4656119475106890e-02  -2.0091075614132197e-03 -5.3112886186334703e-02 -1.7708778639887575e-02  -1.7185601169963163e-03 -5.3081400223229845e-02 -1.6971742126866654e-02  -1.5252647100206186e-03 -5.4133018980077711e-02 -1.2172801037219110e-02  -2.9255306806782433e-03 -5.3734204915973791e-02 -1.3748743386720061e-02  -1.4129074775313336e-03 -5.2949794875179583e-02 -1.6219685468355470e-02  -1.3019680601130752e-03 -5.4054502108336726e-02 -1.1205289356918601e-02  -2.6468688522233467e-03 -5.3601264751693453e-02 -1.2932537708199819e-02  -1.0867493835897363e-03 -5.4030735513279075e-02 -1.0263226925035628e-02  -1.1414171360343219e-03 -5.2765495279298434e-02 -1.5447847164027244e-02  -2.3861808695871500e-03 -5.3476859792832836e-02 -1.2124092367226395e-02  -8.7437109128361899e-04 -5.4152204861561158e-02 -9.2595561755601727e-03  -8.6377939942343591e-04 -5.2622979694378805e-02 -1.4571386314303348e-02  -2.1213842950683348e-03 -5.3462424515516450e-02 -1.1223983882781527e-02  -6.9538041789809417e-04 -5.4473029626859501e-02 -8.1244435923929041e-03  -7.3963469541001221e-04 -5.2439296493618406e-02 -1.3547527070888455e-02  -1.9106425387008916e-03 -5.3578655004246335e-02 -1.0181172982435586e-02  -1.1314183526591327e-03 -4.8965498432316720e-02 -1.7676758452619880e-02  4.1275250913828238e-04 -4.6759406737325433e-02 -2.0642498786625278e-02  9.0753429699699372e-04 -5.0380682154281320e-02 -1.7688297651864856e-02  -1.3424328575021491e-03 -4.9829094512396803e-02 -1.8378050550933816e-02  -2.5061796256813564e-03 -5.8662092481503406e-02 -2.2915263417854544e-03  -1.5494801931051347e-03 -5.6637608416152514e-02 -6.1837188573333401e-03  -3.0368171031337535e-03 -5.6362251184691778e-02 -7.1603408941060204e-03  -2.9846237238245871e-03 -5.5738354222326064e-02 -5.7769200091084749e-03  -1.6322846487303326e-03 -5.5929969986397640e-02 -4.7897575789093462e-03  -2.7057737122370062e-03 -5.7479316114704512e-02 -1.1882657506737742e-03  -2.9543845397369084e-03 -5.5219000052379161e-02 -4.7566664871091643e-03  -1.6904369122000861e-03 -5.5348338782453189e-02 -3.7347045712248514e-03  -2.8755436556016710e-03 -5.6523145166558521e-02 -3.9714895398850945e-04  -2.9262133539404650e-03 -5.4820161642486563e-02 -3.9435906487255198e-03  -1.7236627956962369e-03 -5.4907731479926863e-02 -2.8815292162633088e-03  -3.0184559241568250e-03 -5.5790401719471631e-02 1.7071930646472819e-04  -2.8803052332570002e-03 -5.4596877755217363e-02 -3.2153852010705481e-03  -1.7239770905008421e-03 -5.4653669431044431e-02 -2.1374377678326241e-03  -3.1270154014367648e-03 -5.5292917630056143e-02 6.0302119502357186e-04  -2.7978706790216679e-03 -5.4614322745622702e-02 -2.4894970274845778e-03  -1.6797105863835522e-03 -5.4634407266834974e-02 -1.4276984386107062e-03  -3.1930290486337134e-03 -5.5048350652105081e-02 9.6180953082816072e-04  -2.6478062284759651e-03 -5.4947983721926316e-02 -1.7028894033075353e-03  -1.5775014993841408e-03 -5.4893012610637934e-02 -7.0815315904111241e-04  -3.2064485911946069e-03 -5.5063431662903735e-02 1.3038663037987517e-03  -4.7439340601651827e-03 -6.5596210245359485e-02 6.4850766062484032e-03  -5.1286743909653232e-03 -6.3499482371587701e-02 6.1087737155777365e-03  -5.4645924084150786e-03 -6.1855789480585788e-02 5.5850554737849828e-03  -5.7758547599288468e-03 -6.0553746045715957e-02 4.9461681514831098e-03  -6.0784421930489049e-03 -5.9548279720150074e-02 4.1952234767854190e-03  -6.3905636667926161e-03 -5.8811783411042859e-02 3.3335958892274889e-03  -6.7550570050954051e-03 -5.8329902237763992e-02 2.3513382285326508e-03  -4.5622803438656601e-03 -5.4442328518635598e-02 -1.2646071311099885e-02  -4.7137152786254754e-03 -5.3306579288555492e-02 -1.5887415069314251e-02  -4.4996536096552639e-03 -5.3353661294698075e-02 -1.5074826293545668e-02  -4.4032010616027600e-03 -5.4376710572618218e-02 -1.1445346594608672e-02  -4.1725086739955531e-03 -5.3269348257515038e-02 -1.4294542202697401e-02  -4.1467630580293655e-03 -5.4205456050887224e-02 -1.0420078773150059e-02  -3.8643777015340184e-03 -5.3059771216893703e-02 -1.3602256907212042e-02  -3.9163134051050799e-03 -5.3990920302791165e-02 -9.5711445557550342e-03  -3.5662517108514362e-03 -5.2834698138510695e-02 -1.2907229136130996e-02  -3.6939132088326804e-03 -5.3845310246347006e-02 -8.7754596315629853e-03  -3.2602500273840483e-03 -5.2684123616330021e-02 -1.2109488205500665e-02  -3.4546667998705677e-03 -5.3871197968315861e-02 -7.9192786693922778e-03  -2.8980579881554601e-03 -5.2587227049520034e-02 -1.1164072489243379e-02  -3.1552192906789144e-03 -5.4197022125011818e-02 -6.8911773036949104e-03  -9.3741552934197610e-03 -5.2745595036503896e-02 -1.2179717663732438e-02  -8.2753917854232802e-03 -5.3154810612776091e-02 -1.2664178007421785e-02  -9.2038684591588434e-03 -5.1545810315669641e-02 -1.4489749425651769e-02  -8.8165134963203232e-03 -5.1419671530956196e-02 -1.3813808711788882e-02  -7.9755063284796483e-03 -5.3024629511947093e-02 -1.1660846218976109e-02  -9.0289404020345073e-03 -5.2520483185318330e-02 -1.1214915450545437e-02  -8.4724379340273548e-03 -5.1067791429831338e-02 -1.3259973431210881e-02  -7.6406578977574347e-03 -5.2711740608957988e-02 -1.0867121062042477e-02  -8.7110525273947758e-03 -5.2136168154202814e-02 -1.0479370643786805e-02  -8.1441339381021129e-03 -5.0619806110166400e-02 -1.2779318259155599e-02  -7.3439717791799258e-03 -5.2325209316792506e-02 -1.0231083789152001e-02  -8.4284267675955003e-03 -5.1710170923898520e-02 -9.8828492243372302e-03  -7.7987301884833672e-03 -5.0172122623182956e-02 -1.2303340557030858e-02  -7.0442641833304530e-03 -5.1996195944504685e-02 -9.6351192553551547e-03  -8.1393767983367494e-03 -5.1361162199859443e-02 -9.3219242234794369e-03  -7.3586616191854293e-03 -4.9782605524971088e-02 -1.1760438769333264e-02  -6.7052181255170019e-03 -5.1834474740193162e-02 -8.9727512284813651e-03  -7.8114178507252968e-03 -5.1197295459620415e-02 -8.7105302362435553e-03  -6.6652493154518988e-03 -4.9506572809743001e-02 -1.1076499610769069e-02  -6.1410738187131532e-03 -5.1858225311773781e-02 -8.1686593695660739e-03  -7.2957359213508882e-03 -5.1182931222041962e-02 -8.0363096373202020e-03  -1.1714509332841191e-03 -5.9354936542248576e-02 -3.9824948130637316e-04  -1.5002269267504404e-03 -5.8013678942873070e-02 5.3908179133156577e-04  6.5009419153878097e-04 -5.3277701569050609e-02 -1.2836758022488265e-02  -3.2540583036292643e-03 -5.4844534558673746e-02 -1.1801073018753173e-02  -3.1725026381088915e-03 -5.4738058286818658e-02 -1.0487439445835342e-02  -2.9715298604962100e-03 -5.4541732182433543e-02 -9.3837217873743335e-03  -2.8001566674392998e-03 -5.4338355814625247e-02 -8.4726615488816184e-03  -2.6284585213559052e-03 -5.4233496054666104e-02 -7.6269587670910414e-03  -2.4365828774250099e-03 -5.4316793848876950e-02 -6.7362195961765048e-03  -2.1762804927307313e-03 -5.4717095336429336e-02 -5.6806778476866720e-03  -8.1595394559103671e-03 -5.1586791203411649e-02 -1.5799351893775612e-02  -7.7646006222350482e-03 -5.1507968863394038e-02 -1.5240380447851306e-02  -7.3806941566058448e-03 -5.1224237565380672e-02 -1.4715350158578567e-02  -7.0139278674397317e-03 -5.0806685103983625e-02 -1.4237955592908094e-02  -6.6319344929318272e-03 -5.0347563287497253e-02 -1.3751011161576173e-02  -6.1763174429550396e-03 -4.9915283059440173e-02 -1.3174938137971567e-02  -5.5232209180936659e-03 -4.9450179366364928e-02 -1.2430928398281032e-02  8.9233051220433189e-04 -9.7365595952663142e-02 3.1760436459463359e-02  2.3305192966751758e-03 -9.8925978826503183e-02 3.3922082895528026e-02  6.5295348010253353e-04 -9.2877134239420456e-02 2.8967876574559868e-02  7.2669440419888864e-05 -9.2080981609982751e-02 2.5511172828017816e-02  1.8603494507428459e-03 -9.8833096287739342e-02 3.0487989391924486e-02  4.1636306050484663e-04 -9.6988343206024341e-02 2.8223079939594598e-02  -4.5177477911596039e-04 -9.1411448217577768e-02 2.2360864816065126e-02  -2.9405491267420285e-03 -5.1743722827824114e-02 -2.0567067284894436e-02  -3.6555362768126943e-03 -5.2804608450216770e-02 -1.8081348035596634e-02  -3.4282528582573195e-03 -5.2857209477565510e-02 -1.7492816494944791e-02  -2.5933215182659653e-03 -5.1584832989988921e-02 -2.0310498286752493e-02  -2.2347517000989364e-03 -5.1312074898911451e-02 -1.9952184414946082e-02  -3.1049973599136986e-03 -5.2763615955739161e-02 -1.6850969098626201e-02  -2.7739653467621734e-03 -5.2551468012550617e-02 -1.6205609049912199e-02  -1.9033219884924653e-03 -5.0921665947926929e-02 -1.9509921747962372e-02  -2.4657643110521064e-03 -5.2281314600010446e-02 -1.5539600642156698e-02  -1.5861357867130949e-03 -5.0441401476858355e-02 -1.8989510245338577e-02  -2.1726289803839041e-03 -5.2010867775264105e-02 -1.4777342983117550e-02  -1.9256552781341688e-03 -5.1642178312075807e-02 -1.3861106974956698e-02  -6.6607831505265218e-03 -8.2314276567254874e-02 1.7191094744418624e-02  -5.5363459299825361e-03 -8.7207819696258612e-02 2.0614763490040620e-02  -4.7862945304255689e-03 -8.5256013873951125e-02 2.0172148295681785e-02  -5.2867797602154445e-03 -8.3785458556637618e-02 1.7169555114490094e-02  -5.9429251901957809e-03 -8.5911328930587949e-02 1.7508840306797141e-02  -7.1031207141868365e-03 -8.0741865127068338e-02 1.4428294559454552e-02  -5.7147846610707438e-03 -8.2577930357730547e-02 1.4345298658571686e-02  -6.2919795208700646e-03 -8.4843013216177612e-02 1.4583792934208816e-02  -7.4753344495449440e-03 -7.9443021041909062e-02 1.1812874059306514e-02  -6.1013667058193964e-03 -8.1579816841283181e-02 1.1595100764209698e-02  -6.6068202282450923e-03 -8.3942486444295680e-02 1.1740718565243474e-02  -7.8124200319458614e-03 -7.8370242135410412e-02 9.2520951051941833e-03  -6.4758981267604206e-03 -8.0762831569928736e-02 8.8385584681969533e-03  -6.9146590170227869e-03 -8.3190992582933221e-02 8.8960822167313148e-03  -8.1389265148660225e-03 -7.7489502038046984e-02 6.6779629218272733e-03  -6.8630598457647130e-03 -8.0108496038416521e-02 6.0117025003175624e-03  -7.2376974943795785e-03 -8.2577556941343458e-02 5.9810872945697275e-03  -8.4764873269620612e-03 -7.6778073835417696e-02 4.0353275830682881e-03  -7.2867779454094256e-03 -7.9611179045156494e-02 3.0581896420404102e-03  -7.5917427845095323e-03 -8.2103997626448127e-02 2.9411306514276030e-03  -8.8469182532937389e-03 -7.6211770725266970e-02 1.2833039325349125e-03  -6.4966670552184923e-03 -7.8535736869452213e-02 1.5156217445740958e-02  -6.9751460685889667e-03 -7.6705839804559486e-02 1.2739293770930147e-02  -7.3925432023059954e-03 -7.5215161929597346e-02 1.0432453031502167e-02  -7.7712538896953006e-03 -7.3990418588498433e-02 8.1555068644363002e-03  -8.1378271268597435e-03 -7.2993301958014220e-02 5.8521397045263220e-03  -8.5150470278695500e-03 -7.2196605601236974e-02 3.4784139248719816e-03  -8.9290453042417776e-03 -7.1583608015306041e-02 9.8832395506020360e-04  -4.0078263600410212e-03 -9.1689155376001724e-02 2.4296738173885137e-02  -4.4181931089122307e-03 -9.0691916764252548e-02 2.0980817162806590e-02  -4.7611653558635387e-03 -8.9841216063951151e-02 1.7861647002825800e-02  -5.0685204042488071e-03 -8.9109897826733703e-02 1.4850430638134531e-02  -5.3720526202595941e-03 -8.8492100137641846e-02 1.1844962866710468e-02  -5.6982255960537319e-03 -8.7990151404161623e-02 8.7668653346300775e-03  -6.0681525291999558e-03 -8.7599820432823536e-02 5.5515026555235146e-03  -2.8377847856119031e-03 -9.1659210186749093e-02 2.5193118761751152e-02  -3.3504476553893581e-03 -9.0629828530023035e-02 2.1817693732431673e-02  -3.7747842589956368e-03 -8.9764163412617906e-02 1.8663153326100870e-02  -4.1587826923750746e-03 -8.9033231876411184e-02 1.5615424272462333e-02  -4.5349156739821379e-03 -8.8425559839221679e-02 1.2568668899660594e-02  -4.9291826387405004e-03 -8.7941518442671243e-02 9.4439336425726217e-03  -5.3739648000603732e-03 -8.7572847168006424e-02 6.1891223130449494e-03  -2.1829036086317491e-03 -5.5372222473705213e-02 -1.0055511090463484e-02  -2.1295302226449395e-03 -5.5122408861349552e-02 -8.6463175055017244e-03  -2.0187260916984151e-03 -5.4809730398613636e-02 -7.5240496753940945e-03  -1.9136600567055606e-03 -5.4558127166504648e-02 -6.5997820061978324e-03  -1.7946574179563721e-03 -5.4443877843251533e-02 -5.7509870188612649e-03  -1.6451050835314214e-03 -5.4537600710963162e-02 -4.8848837093746923e-03  -1.4352052119464204e-03 -5.4928556184983469e-02 -3.9099530950755029e-03  -8.4244016946467847e-04 -5.5202874624249117e-02 -1.0083050464857494e-02  -4.7754064585480685e-04 -5.4477748048779404e-02 -4.5515864546514873e-03  -2.9734963708079667e-04 -5.4876665337882248e-02 -3.5534729599767194e-03  -1.3568715297621690e-03 -4.4623110559822918e-02 -2.0486600938996336e-02  -2.7226921650017996e-03 -4.6578134162172900e-02 -1.8356122780497152e-02  -5.8898312980705083e-03 -5.1234604704923935e-02 -1.8701207032759414e-02  -4.5246404957209781e-03 -5.1837859797210929e-02 -1.9217166876369127e-02  -4.7777656265357077e-03 -5.0781473048706172e-02 -1.9999015535947719e-02  -4.1569865400199954e-03 -5.1731052671959842e-02 -1.8888413490468239e-02  -5.4797941899040522e-03 -5.1054639515086445e-02 -1.8452241329956910e-02  -4.3470632546742409e-03 -5.0441490355042307e-02 -1.9939436362928439e-02  -3.7813715383050710e-03 -5.1492068834815385e-02 -1.8484011447197326e-02  -5.0903852259772996e-03 -5.0710970975143453e-02 -1.8139051199549176e-02  8.2394482949049936e-04 -5.4561909067351817e-02 -7.9830770699485260e-03  -2.4430846314166324e-03 -7.3929072834766366e-02 1.4362638690384132e-02  -1.3327710188812225e-03 -7.7557118946853673e-02 1.7620426912998522e-02  -1.6827256589192984e-03 -7.2233450163255233e-02 1.3487334497686078e-02  -2.3730756889533181e-03 -7.0112687041496646e-02 1.2037344658705002e-02  -2.0804950045102181e-03 -7.5642848010056440e-02 1.5405738966774546e-02  -3.1359216904117159e-03 -7.1809493870326840e-02 1.2676515645257763e-02  -2.9765664486517437e-03 -6.8422598478252619e-02 1.0541635021851337e-02  -2.7085763949295499e-03 -7.4107573213413797e-02 1.3271145157018292e-02  -3.7244000466777165e-03 -7.0092826866730254e-02 1.0936010546367706e-02  -3.5089582697411651e-03 -6.7061807910866911e-02 8.9833646391826866e-03  -3.2721217030104240e-03 -7.2881439365161518e-02 1.1129013832755184e-02  -4.2562239225978462e-03 -6.8696589613226902e-02 9.1575476958648348e-03  -3.9981074653014466e-03 -6.5986352859396982e-02 7.3562215876890897e-03  -3.8009487722348882e-03 -7.1919440153913050e-02 8.9347907683183948e-03  -4.7595789112009424e-03 -6.7579785603277445e-02 7.3264117577081537e-03  -4.4700011592672863e-03 -6.5174826448790232e-02 5.6471121259419497e-03  -4.3224107293945210e-03 -7.1194517618397679e-02 6.6542882687558747e-03  -5.2584160663222213e-03 -6.6719666257469570e-02 5.4237837247958992e-03  -4.9608981965674976e-03 -6.4620811146012522e-02 3.8385976283500404e-03  -4.8621295610358391e-03 -7.0682441015520833e-02 4.2492895277708416e-03  -5.7686677115870045e-03 -6.6112127807324658e-02 3.4432941993207144e-03  -5.4313403821207818e-03 -6.1287450841906982e-02 1.3122123584992965e-03  -5.5725707001227955e-03 -5.9545539312673472e-02 1.8298985852556330e-03  -5.7317158273581508e-03 -5.8179728972195602e-02 2.0900913743857599e-03  -5.8856861141802289e-03 -5.7123498916829482e-02 2.1545560247973822e-03  -6.0355400388758355e-03 -5.6348328566877777e-02 2.0803803323964096e-03  -6.1923246539681192e-03 -5.5840874708433262e-02 1.9046066544329734e-03  -6.3887562339611098e-03 -5.5578503324905638e-02 1.6464805627750708e-03  -3.8630145762536998e-03 -7.0684305489196936e-02 4.9452886690911080e-03  -2.1388250736082150e-03 -6.1128975665371142e-02 2.0599395715018031e-03  -2.5080084021977954e-03 -5.9492702870499035e-02 2.6452956996135162e-03  -2.8340224755287733e-03 -5.8222102894996124e-02 2.9489472244437916e-03  -2.4932200833553803e-03 -4.9284903013103218e-02 -1.6202770925579792e-02  -1.4215697079616573e-04 -6.2316862457589974e-02 4.7457098247714550e-03  -1.1532741871533260e-03 -6.2079257376922589e-02 3.7652641482583214e-03  -1.6621188198455222e-03 -6.0345376971453986e-02 4.1324360641619975e-03  -9.8595262013152704e-03 -7.9579921465404727e-02 1.3171966241078097e-02  -9.4558342258465478e-03 -7.5781341249735359e-02 1.1613607698229354e-02  -1.1030234663582307e-02 -7.3603269753756015e-02 9.1540486602561012e-03  -9.8465769808546173e-03 -7.3981089433940786e-02 9.4239428379765833e-03  -1.0215563755046347e-02 -7.7941840932115009e-02 1.0639771624552133e-02  -1.1424674890231698e-02 -7.1763083742415149e-02 7.2596711817859341e-03  -1.0181100388150189e-02 -7.2467937728453322e-02 7.3418134016877681e-03  -1.0493545383138491e-02 -7.6599570067918288e-02 8.2232290327040776e-03  -1.1751693356132851e-02 -7.0235261725782594e-02 5.3886848547597694e-03  -1.0478718189889113e-02 -7.1227087753195584e-02 5.2735268055281977e-03  -6.2520735268422494e-04 -6.4954910786414799e-02 7.4351094572803677e-03  -3.6056313786435074e-03 -7.7305205462249713e-02 5.7277928962617452e-03  -4.4740063852333825e-03 -6.9409314254232829e-02 9.9815663969842275e-03  -4.9468868386314925e-03 -6.7302570888831917e-02 8.8955785971221394e-03  -5.3736168173809636e-03 -6.5563998875611901e-02 7.8236045539673733e-03  -5.7658888458335771e-03 -6.4176996294930649e-02 6.6633317636975156e-03  -6.1434846313262962e-03 -6.3092807421371258e-02 5.3993500783027452e-03  -6.5328834709440075e-03 -6.2273528253469268e-02 4.0234460911188511e-03  -6.9772574130895094e-03 -6.1678641736490340e-02 2.5150606141875306e-03  -4.1302657743023221e-03 -6.2991546165028042e-02 3.5541116620204896e-03  -4.4233562389904661e-03 -6.1112327588225095e-02 3.8057034885300004e-03  -4.7038202616005087e-03 -5.9574387381613872e-02 3.7936852284492940e-03  -4.9629998270282853e-03 -5.8366016749703410e-02 3.6230120143499302e-03  -5.2031028810411804e-03 -5.7453929032126747e-02 3.3354043312602156e-03  -5.4324970493027360e-03 -5.6819884052867205e-02 2.9571641978181772e-03  -5.6737229342174915e-03 -5.6468755203652556e-02 2.5040724184248195e-03  -4.7002392488312405e-03 -5.9570372097549298e-02 -1.3047555156336195e-03  -4.7843870454491308e-03 -5.8144379750237701e-02 -3.9746873569509214e-04  -4.8859605871598736e-03 -5.7017944430646103e-02 2.5218654990096867e-04  -4.9848097333823537e-03 -5.6148318860914266e-02 6.7656564601481256e-04  -5.0765941926221581e-03 -5.5525425392521532e-02 9.5130033350475471e-04  -5.1621445230112277e-03 -5.5156767559509497e-0