<?xml version="1.0"?>
<VTKFile type="UnstructuredGrid"  version="0.1"  >
<UnstructuredGrid>
<Piece  NumberOfPoints="941" NumberOfCells="4037">
<Points>
<DataArray  type="Float64"  NumberOfComponents="3"  format="ascii">8.343726342201517 3.94649873602344 1.337671600620535  8.239969820286356 3.919744049257905 1.325989551393637  8.313488361973585 3.984345728894108 1.431192176324541  8.299362810092113 4.049046138419655 1.404785612938534  8.228720571008056 3.982263070026244 1.29197226741454  8.330439592025614 4.009245224871819 1.303349356603288  8.285451393068659 4.113810506600871 1.378245206062355  8.217580714647086 4.044803701304532 1.257819529650936  8.31732070659897 4.072009071604265 1.26894055411169  8.271602657925657 4.178638669634904 1.351624072986166  8.206463296881161 4.107384829021377 1.223579667695483  8.304257199970186 4.134802043561025 1.234460929268231  8.257709560738704 4.243527719697726 1.324958400263295  8.195297506779962 4.170011079288298 1.189276657086578  8.29115692327203 4.19762391777882 1.19992193951389  8.24366057370926 4.308470005871381 1.298273355035456  8.184016265587744 4.23268588341095 1.154930903256453  8.277928814169051 4.26046624004281 1.1653301286072  8.229260341801965 4.373434978107928 1.271587946262003  8.172521172201725 4.295448759630711 1.120552910519801  8.26447042177897 4.323290073448154 1.130705623305655  7.934440710294164 3.997439614449585 2.198130916549096  7.832696423679625 4.000708113402715 2.139686622857154  7.86853945463513 3.989685264426098 2.295754972297622  7.871337222044698 4.047120218036699 2.300233483382296  7.8345960521989 4.059753398786164 2.142443208276615  7.933718358233222 4.055547616982287 2.203091091996743  7.836391882886629 4.118991856269262 2.145160288893846  7.932960985698721 4.113867507161552 2.208005606545632  7.874037363446805 4.10481355364467 2.304732446270388  7.838121782580591 4.178465119965788 2.147883021778873  7.932181097251869 4.1724353526761 2.212935413651445  7.876702759779946 4.162741737316836 2.309248784603636  7.839843905707599 4.23817754441224 2.150642093706682  7.931399212220525 4.231271056683665 2.217919857422229  7.879386235185541 4.220928294232024 2.313803539795805  7.841603294341793 4.298156419125681 2.153467800950978  7.930630483257713 4.290433839191646 2.223007611554669  7.882151188105116 4.279430253612083 2.318413133843713  7.929857522858907 4.349974512343684 2.228260961943342  7.843497111981597 4.358537995520314 2.156427973154706  7.885095326526407 4.338329901853133 2.323126905538317  8.207475029603891 3.967695244631578 2.47057760246273  8.171864728267227 3.982341062613199 2.369459403059518  8.087444406710059 3.973848497477081 2.415720925543038  8.086574877081913 4.029484126079774 2.423634102753222  8.168632146551568 4.03787766554902 2.378107055287793  8.20550590422692 4.022391793229614 2.480602212822068  8.085721376337629 4.085357329266033 2.431530702328439  8.165464825771934 4.093685546858451 2.386686239087987  8.203595160127625 4.077335990856516 2.490588676655047  8.084879726262763 4.141492720306021 2.439461980442442  8.16230581811867 4.149748577596275 2.395299018409189  8.20169358416679 4.132537791930126 2.500614019783844  8.084039612131679 4.197915058000834 2.447469683684047  8.159116339320475 4.206078407331259 2.404003137026968  8.199771187598893 4.18802489099375 2.510723389529691  8.083190475446944 4.254691792651064 2.455594620413413  8.155844599490791 4.262701187666272 2.412853185922518  8.197784683976572 4.243846040476119 2.520979962881519  8.082264986000348 4.311919540489148 2.463895897236507  8.152429197691882 4.319718417676606 2.421904758239475  8.19571086165174 4.300096826737729 2.531458913783163  8.144792245278499 3.95270647435495 2.553652667827423  8.144909257366267 4.007286675836069 2.563094986742033  8.145033731006141 4.062119986655923 2.572562614889263  8.145181086948975 4.117221348506737 2.582056185523195  8.145347308488459 4.172624725008237 2.591618395128133  8.145542097081975 4.228406477803728 2.601282778316311  8.145681757268314 4.28466246339261 2.611135735169881  8.195955422444648 3.976351966118678 1.469619459313372  8.184877971651284 4.041183289385097 1.446068932298798  8.173928309278988 4.106107067299129 1.422335406506712  8.162989907146565 4.171130595457315 1.398510061730141  8.151988827343047 4.236248072946024 1.374647380942567  8.140840871537479 4.301467472820772 1.350778739478122  8.129430578999406 4.366800354321525 1.326925429614461  7.750478744671098 4.00154869779594 2.267713075281797  7.755952496677304 4.059777013513634 2.270668032482279  7.761272887095173 4.118278540516778 2.273673120305146  7.766542138638913 4.176982569528078 2.276704075308301  7.771849793436668 4.235919165618624 2.279750978358936  8.294816223362385 4.049261228695586 1.967635809802287  8.173430951253961 4.020466724583418 2.077507408631679  8.311303499710379 4.038644455776517 2.085645466780971  8.301314028768589 4.097631990500277 2.092046214211678  8.166433489209712 4.079687122053372 2.082519817117849  8.282535861433791 4.11017266339964 1.971674489761229  8.270523184886772 4.171289698658777 1.975513169044637  8.159564805173561 4.139155299367092 2.087383775420166  8.291546283481079 4.156929643442346 2.098273926503519  8.152706005418073 4.198827267661041 2.092233166946296  8.258575972086913 4.232614474175747 1.979327006626255  8.281819394883978 4.216420062928576 2.104473600375389  8.145762453433161 4.258709272714468 2.097175136945506  8.246534022581084 4.294090790446432 1.983226429171328  8.271994341994377 4.276076238640846 2.110757888602808  8.234261738735649 4.355692881251115 1.987258321554007  8.13866060033668 4.318873674400593 2.10227512559805  8.261941554448029 4.335860647034629 2.117183879328102  8.221486929936338 4.417436731622852 1.991501554946359  8.131284171890417 4.379374826281685 2.107593686497002  8.251500654600827 4.395870596503079 2.123837790335006  8.863713397737618 4.042471805275261 1.302634377542037  8.72390637190086 4.025993198228575 1.329497282865088  8.797870702052752 4.083990365694747 1.421130434442841  8.784602704513889 4.150843498321073 1.391042412136392  8.710193101043014 4.090422024821722 1.292937414167217  8.839770892509003 4.171169007916782 1.224927231872021  8.69664046689187 4.154792053521359 1.256480117277977  8.771493836647528 4.217572563826119 1.361092085009697  8.758456028126442 4.284192741003763 1.331191999675409  8.683155376348319 4.219099077054966 1.220058798470216  8.827884197498031 4.235425881426727 1.186186468852436  8.745426700641245 4.350715430956195 1.301289389688614  8.6696699985309 4.283333203400014 1.183624049932796  8.816003224131565 4.299599006256977 1.147437643468715  8.732361280168684 4.417132087565784 1.271357068380946  8.65612558779036 4.347471305162714 1.147147122598396  7.868450401113043 4.19538834789525 1.884302756468349  7.956578961724018 4.200731465733663 1.804713986302218  7.947529118330603 4.197780309162228 1.905381781765047  7.960663829673428 4.137038050254168 1.807735089370143  7.944179045432949 4.260366466597012 1.904709754407747  7.866183433816296 4.258241663446713 1.882957737812539  7.952408682793303 4.264643690275234 1.801741110634246  7.940763495898951 4.323207711233263 1.90414662407188  7.863887352110127 4.321361688586125 1.881705517350889  7.948164658267104 4.328802384271987 1.798873032210585  7.937333450136081 4.386334170620517 1.90375398734405  7.861575115874005 4.384783737538389 1.880619011897668  7.943893601698388 4.393255085425012 1.796181506440157  8.861132847408005 4.290668652625956 1.294956135853485  8.848455533801751 4.357354369214433 1.263698095991884  8.835747913096137 4.423935841610719 1.23242074301525  8.16599814673874 4.031075829130984 1.93808329003652  8.158313967931692 4.092681801976757 1.939055375397602  8.150751190592052 4.15452507392535 1.939831763111831  8.14317620075261 4.216581550600152 1.940597700282415  8.135501015017077 4.278835870019332 1.941435148775635  8.127644304015236 4.341312067930456 1.942400032715373  8.119559628845932 4.404087396917643 1.943545720192631  8.980347016428576 4.091714841892723 2.375714233287916  8.950787244282248 4.130685335992926 2.242382029309165  8.876142600290281 4.089197535295416 2.347588758868751  8.86907845556552 4.144008504589112 2.366283225463278  7.871596956215917 4.195718950996588 1.73585837291229  7.86820397395907 4.260197528301141 1.729510578619706  7.864761692617803 4.324916924284755 1.723245363256932  7.861268879602404 4.389901541804673 1.717102732365115  8.641158003751638 4.109384749881825 2.148948306547229  8.519330082205501 4.082375140360138 2.134451673456707  8.593792322857924 4.071531364738894 2.242418308059487  8.581680015762974 4.127695976569326 2.257838487620647  8.50460147378662 4.140487023922005 2.146179148986045  8.62836458447064 4.168122815414575 2.162884459349742  8.569855334184085 4.184069621277464 2.27303088972296  8.490226419037391 4.198819369208998 2.157699298695921  8.615870248209896 4.227003554647759 2.176586808689933  8.558101456099829 4.240573213543382 2.28819908723852  8.475942941982137 4.25728443170374 2.169199286938852  8.603429508828077 4.285963728813301 2.190279097248888  8.546273502502078 4.297155171763295 2.303459790007211  8.461575369512028 4.315833230345671 2.180787339266409  8.590917310138911 4.344949133078616 2.204041016723417  8.534246311046781 4.353753491489198 2.318878470561119  8.446951752638228 4.374421904865243 2.192522382382966  8.578236709969996 4.403874505510972 2.217919101869957  8.521863335947629 4.410239304122749 2.334515950232033  8.431842236955722 4.432918124382285 2.204475043771142  8.565321349110906 4.462614839007496 2.231936553694808  8.703504692983365 3.926478746397023 2.737216955425222  8.60492256597805 3.950696752948628 2.643635325104742  8.54741901508455 3.907162251800965 2.767589484694996  8.545346445110837 3.958421845110029 2.783376802012124  8.600157413984315 4.002043190026303 2.659990807645748  8.699752227741014 3.97686158163255 2.754762765166923  8.543358656859057 4.009931871893698 2.799130168393453  8.595518333356223 4.0536512283433 2.676252213095
[...]
<PointData  Vectors="f_16"> 
<DataArray  type="Float64"  Name="f_16"  NumberOfComponents="3" format="ascii">-2.6380608832500166e-02 2.9976276175028016e-02 3.0080954660956324e-02  -2.5127684796118540e-02 2.8363594402904833e-02 3.1879407721640524e-02  -2.6739805586683599e-02 4.2544544828984121e-02 3.0206282477416344e-02  -2.6465575732164140e-02 3.7369998006234487e-02 2.4223010670737261e-02  -2.4933358192208894e-02 2.2728561034899813e-02 2.7639556505196693e-02  -2.6068990898075010e-02 2.4276082616890744e-02 2.5621610511183310e-02  -2.6421413060189351e-02 3.3031411056189147e-02 1.8393155043121983e-02  -2.4956596929604950e-02 1.8147048229047166e-02 2.3344110159752369e-02  -2.5989736132550047e-02 1.9591644814067104e-02 2.1096819269801000e-02  -2.6510555409713161e-02 2.9285515042079630e-02 1.2477274841648182e-02  -2.5111746146999150e-02 1.4256111644935615e-02 1.8768897261127914e-02  -2.6070408982108082e-02 1.5620353821112043e-02 1.6344255018422734e-02  -2.6660971179058086e-02 2.5930193864480703e-02 6.2471136031729459e-03  -2.5139091671347896e-02 1.0707972080308660e-02 1.3673214136355803e-02  -2.6082936365459934e-02 1.2037880561346397e-02 1.1101921153258434e-02  -2.6703125817550133e-02 2.2740364288016460e-02 -5.2811858308006757e-04  -2.5057412807312954e-02 7.3682311103633151e-03 7.9691953380921360e-03  -2.5984589990571239e-02 8.6664844327849905e-03 5.2546270536037018e-03  -2.6687877237329963e-02 1.9616773087865209e-02 -7.9276446140633273e-03  -2.4953074816963721e-02 4.2253494147133711e-03 1.5944297566713491e-03  -2.5843970837974326e-02 5.4218055448745760e-03 -1.2583309722783971e-03  -1.9724291548300910e-02 1.3499099201154419e-01 3.1628677062913640e-02  -1.8929043714624012e-02 1.2805829551391296e-01 3.2444548766492748e-02  -1.6989920846908004e-02 1.3972974457230267e-01 3.1009236023710710e-02  -1.8650424351356304e-02 1.4088792061988067e-01 2.8466493363496534e-02  -2.0277085466981409e-02 1.2898359942257215e-01 2.8047679636752847e-02  -2.0989268013795900e-02 1.3607920607861135e-01 2.7862335568835907e-02  -2.1624967592666570e-02 1.2944252724971253e-01 2.3857855610367146e-02  -2.2352339731277277e-02 1.3669715412274733e-01 2.4135318645835700e-02  -2.0203399307917608e-02 1.4163383397038273e-01 2.5854232610746767e-02  -2.2993025366705680e-02 1.2940413902682110e-01 1.9643214476280233e-02  -2.3734249251072110e-02 1.3681457693272184e-01 2.0365822513833010e-02  -2.1766980866257356e-02 1.4186251955390525e-01 2.3198011574764761e-02  -2.4385819033628520e-02 1.2887933738974955e-01 1.5288215589901464e-02  -2.5127537565878152e-02 1.3643432613273115e-01 1.6445422110394497e-02  -2.3362792208335585e-02 1.4156554056475165e-01 2.0425958178606353e-02  -2.5789673012082782e-02 1.2784790162562359e-01 1.0637206505687568e-02  -2.6518539063138984e-02 1.3553741904255012e-01 1.2226485627189632e-02  -2.5008359116931479e-02 1.4069805423132281e-01 1.7453570182315459e-02  -2.7878202881825475e-02 1.3408088150922290e-01 7.5310411697663516e-03  -2.7177572067990836e-02 1.2624275688315542e-01 5.4966657917642561e-03  -2.6701244938607843e-02 1.3917287050601063e-01 1.4176851533809940e-02  -2.0054484984776813e-02 1.5672712047079973e-01 2.9736745611728062e-02  -2.1095682417813056e-02 1.5172413500557227e-01 3.0556915954873774e-02  -1.8655398245193557e-02 1.5136033568069956e-01 2.9889814623590024e-02  -2.0273890435756718e-02 1.5257344916695267e-01 2.8743214610007672e-02  -2.2431231585246753e-02 1.5302039088720135e-01 2.8724049394124415e-02  -2.1636724156561999e-02 1.5796554649028283e-01 2.9228120262553683e-02  -2.1948919590197159e-02 1.5337127599196321e-01 2.7209865325302174e-02  -2.4013659759083691e-02 1.5383935411603050e-01 2.6508158417587205e-02  -2.3356023428636220e-02 1.5876193292949722e-01 2.8179495883006795e-02  -2.3571343643956636e-02 1.5363503840449003e-01 2.5565257569445894e-02  -2.5539119257024519e-02 1.5411811038681361e-01 2.4190444600701771e-02  -2.4990228167855535e-02 1.5899808453266734e-01 2.7002915151946073e-02  -2.5175114531455454e-02 1.5335217565435799e-01 2.3768157535672869e-02  -2.7018298260150314e-02 1.5386622272220271e-01 2.1689376546015268e-02  -2.6581645142697528e-02 1.5867067343582805e-01 2.5655057658283811e-02  -2.6787402419295590e-02 1.5248273548798430e-01 2.1754728987052940e-02  -2.8466405263462308e-02 1.5306727172829671e-01 1.8912014125949540e-02  -2.8171916421316001e-02 1.5774734929111120e-01 2.4078170230232170e-02  -2.8426642850174134e-02 1.5100053112380085e-01 1.9434493085703452e-02  -2.9884731095742263e-02 1.5163913379983754e-01 1.5754970931779848e-02  -2.9803118168857098e-02 1.5619993863710571e-01 2.2207788356477142e-02  -1.7253472173329721e-02 1.5594511477902270e-01 2.8416261860831026e-02  -1.9191796280434416e-02 1.5699226993751936e-01 2.9072290475031671e-02  -2.1025084249224866e-02 1.5769337815817147e-01 2.9070958263772526e-02  -2.2753027473580632e-02 1.5785147338350297e-01 2.8957571847255961e-02  -2.4462304546394399e-02 1.5745120919947758e-01 2.8735116091181810e-02  -2.6223131565486883e-02 1.5643690324987994e-01 2.8395998072476201e-02  -2.8090266093081583e-02 1.5474113731501135e-01 2.7893095631735462e-02  -2.5608433008931432e-02 4.7685262291386962e-02 3.1995479762999469e-02  -2.5570236407472982e-02 4.2813907026326904e-02 2.5575530383134589e-02  -2.5665856091917218e-02 3.8645232822182067e-02 1.9383733422813267e-02  -2.5858009857515671e-02 3.5011703523941479e-02 1.3172612454463250e-02  -2.6108797222539507e-02 3.1744257307824042e-02 6.7121333490266768e-03  -2.6279040295605283e-02 2.8641151943334105e-02 -2.5605950631588835e-04  -2.6373283502016759e-02 2.5606688757320098e-02 -7.8530267088775547e-03  -1.5759404567530375e-02 1.3498869387065537e-01 3.1353980185285485e-02  -1.7554704245645616e-02 1.3614778825649843e-01 2.8505458890583424e-02  -1.9100562047364475e-02 1.3681336388512899e-01 2.5734387654760105e-02  -2.0691874417130850e-02 1.3696474546271875e-01 2.2945887074631414e-02  -2.2347613655249850e-02 1.3658635737598132e-01 2.0076303908851779e-02  -2.7375357628456366e-02 1.1663704655976261e-01 3.0983746004837723e-02  -2.5029992474480983e-02 1.2802927492918803e-01 3.1946657310189468e-02  -2.7180795020927958e-02 1.3072907406986758e-01 3.1484723153055970e-02  -2.7838822769882889e-02 1.3164404965503762e-01 2.5440003815982468e-02  -2.5776469688455726e-02 1.2888681875948305e-01 2.6225117512411158e-02  -2.8138937512269025e-02 1.1686014861440161e-01 2.3765174902242545e-02  -2.8990102565299682e-02 1.1670594510529475e-01 1.7030112826087389e-02  -2.6874869024532368e-02 1.2918947330895875e-01 2.0718852848638031e-02  -2.8928825855149429e-02 1.3198793722634847e-01 1.9692942096211846e-02  -2.7958716021019833e-02 1.2908093711112265e-01 1.5246313810557532e-02  -2.9800817250917398e-02 1.1626958646486915e-01 1.0421090990710466e-02  -2.9955049104929563e-02 1.3193417358652285e-01 1.3992065256413786e-02  -2.8990904385916116e-02 1.2859796484608882e-01 9.6144407294107524e-03  -3.0551588205291035e-02 1.1558160987602484e-01 3.6899489181810123e-03  -3.0893517814222757e-02 1.3153397047345208e-01 8.1338589831127621e-03  -3.1200854271637327e-02 1.1465901051141023e-01 -3.4011455549392004e-03  -2.9917792289130843e-02 1.2774632621515206e-01 3.6214685826431461e-03  -3.1715528438139795e-02 1.3081590489873773e-01 1.9189795388143659e-03  -3.1693762648892843e-02 1.1356337206534434e-01 -1.1131012528900728e-02  -3.0682059397305859e-02 1.2648613264197917e-01 -2.9515926443070607e-03  -3.2341109251206250e-02 1.2971942782733090e-01 -4.8524876315021665e-03  -3.1919273137793559e-02 2.5447743264821843e-02 2.1792775320090781e-02  -3.0523783685475456e-02 2.9059366421263673e-02 2.3729964654035929e-02  -3.2186941570122723e-02 4.1352004197926735e-02 2.2385318164256499e-02  -3.1692260104175696e-02 3.5820906770656927e-02 1.6333860833400573e-02  -3.0069054573493445e-02 2.3242259078119894e-02 1.9239404495233463e-02  -3.1228520258985853e-02 1.4934497494905486e-02 1.3354836100368058e-02  -2.9828708777501694e-02 1.8503916084327641e-02 1.4607742153285695e-02  -3.1399946273791890e-02 3.1200204318562116e-02 1.0356393808545425e-02  -3.1250330813902813e-02 2.7277370534317943e-02 4.2494795190062334e-03  -2.9763008970857208e-02 1.4524892684297850e-02 9.6964322308429780e-03  -3.1121481575711714e-02 1.0992120910241428e-02 8.7023376592054707e-03  -3.1154640292513813e-02 2.3817872134082117e-02 -2.1519529825152132e-03  -2.9601380675832404e-02 1.0937467011467802e-02 4.2982601428903106e-03  -3.0927971810170467e-02 7.4996485248814563e-03 3.5171368673849457e-03  -3.0928119106187719e-02 2.0572670486931007e-02 -9.0590026756643335e-03  -2.9331479065968703e-02 7.5840692713903717e-03 -1.7048700043283209e-03  -2.4981044189587069e-02 1.0060822924688770e-01 1.4018468602234258e-02  -2.5975467094515575e-02 9.0667779464701462e-02 1.2059606209781715e-02  -2.5824838144309682e-02 1.0415059329560909e-01 1.3439640351962311e-02  -2.5177492628204044e-02 9.1932950825282758e-02 1.8972269039840398e-02  -2.6754820396526796e-02 1.0302258515827278e-01 6.9072848533988113e-03  -2.5945867463250349e-02 9.9409532854489530e-02 7.5395393830685348e-03  -2.6768519719678727e-02 8.9258353025640821e-02 5.0433949413309807e-03  -2.7627727064356358e-02 1.0164041691345065e-01 -1.0297209526176381e-05  -2.6869026887641454e-02 9.7943923538424016e-02 6.7269372025424462e-04  -2.7508230672029756e-02 8.7688682490955322e-02 -2.3651020821786107e-03  -2.8396047245224654e-02 9.9990064003648585e-02 -7.5673049779946900e-03  -2.7682405557789003e-02 9.6207143287144747e-02 -6.8685362846170953e-03  -2.8149389965765916e-02 8.5960836736711829e-02 -1.0440983463148588e-02  -3.2090716335938740e-02 2.2940296561149598e-02 4.1839776055190596e-03  -3.1941956513103234e-02 1.9567413383009200e-02 -2.0125202594682753e-03  -3.1656222803613611e-02 1.6434064527260997e-02 -8.7332655284905643e-03  -2.5699928210463595e-02 1.1177053773166672e-01 3.2002773420421043e-02  -2.6520928430729118e-02 1.1165572656443308e-01 2.4760669654513533e-02  -2.7360022437812635e-02 1.1116719594336263e-01 1.8005848719460846e-02  -2.8215432949183560e-02 1.1039530649486225e-01 1.1378305789085977e-02  -2.9032034954092362e-02 1.0938071411564099e-01 4.6163429916483770e-03  -2.9760768606209961e-02 1.0813815194343288e-01 -2.5312139158071090e-03  -3.0349626732650466e-02 1.0669955128377202e-01 -1.0311287061732547e-02  -4.0267759399376102e-02 1.6592882119226482e-01 3.3621071217177646e-02  -3.9607727082635789e-02 1.5338114702378558e-01 3.0944738313084901e-02  -3.7689817431793511e-02 1.6318079994612467e-01 3.2717820963108595e-02  -3.8156359282527426e-02 1.6550927219157380e-01 2.8969764615228086e-02  -2.5061920215470206e-02 8.0467302916800293e-02 1.2557279695437944e-02  -2.5839337837358502e-02 7.8651693046495885e-02 5.5092888963329690e-03  -2.6575034266794917e-02 7.6716225280052078e-02 -1.9390923866738658e-03  -2.7222012298015238e-02 7.4658475811434435e-02 -1.0053300504019046e-02  -3.3043316698686792e-02 1.4154895410308679e-01 2.8683456137215738e-02  -3.0639384900749293e-02 1.3873548273480360e-01 2.9520476859355438e-02  -3.1580062194754392e-02 1.5087432957714808e-01 3.0826339085616244e-02  -3.2306237823199094e-02 1.5270347773693377e-01 2.6180454757203341e-02  -3.1392663949951390e-02 1.4003796383615977e-01 2.3599268561764152e-02  -3.3823190968369742e-02 1.4311826487722779e-01 2.2542005212622982e-02  -3.3472006627707038e-02 1.5381399589430375e-01 2.1554901927672634e-02  -3.2443439947237245e-02 1.4075220519746381e-01 1.7889372184343586e-02  -3.4750190704140531e-02 1.4402633030536041e-01 1.6666525564046023e-02  -3.4471705574092855e-02 1.5437928248956079e-01 1.6907926644058682e-02  -3.3336390070322915e-02 1.4103255630675121e-01 1.2211610934137768e-02  -3.5520895512947244e-02 1.4445581203459731e-01 1.0809170975811286e-02  -3.5333386834072424e-02 1.5448804702107202e-01 1.2032129769729441e-02  -3.4104702201954322e-02 1.4093848549165941e-01 6.3426124121430758e-03  -3.6171299012633572e-02 1.4450983500067432e-01 4.7392711310290069e-03  -3.6068273070199296e-02 1.5422703983253280e-01 6.7121586423107846e-03  -3.4741038371001148e-02 1.4054413966318924e-01 5.8234354913213034e-05  -3.6711054296320655e-02 1.4430238947155410e-01 -1.7519282286280846e-03  -3.6646124020540634e-02 1.5369524891044409e-01 7.1401942692018094e-04  -3.5216591324633145e-02 1.4004203833059142e-01 -6.8412426112975828e-03  -3.7150248440949184e-02 1.4401059747253697e-01 -8.8305839013463026e-03  -2.8575572662189890e-02 1.7153936299866704e-01 2.9003218103487799e-02  -2.7011151293948057e-02 1.7075935216961072e-01 3.0348097771805801e-02  -2.3339778118623072e-02 1.6587027178918806e-01 2.6677470794196335e-02  -2.5003346231704117e-02 1.6632479358377372e-01 2.9928769534598592e-02  -2.8266864925936986e-02 1.7181214469229830e-01 3.1808879165251852e-02  -2.9707236786117718e-02 1.7221276485364143e-01 3.1803461131352552e-02  -2.6596072033666391e-02 1.6631179463305287e-01 3.2472348480935574e-02  -2.9755314245831031e-02 1.7226794920249322e-01 3.2637626846586255e-02  -3.1019240264432011e-02 1.7229161811011401e-01 3.3924881664467131e-02  -2.8031018776973889e-02 1.6568661243828675e-01 3.4743504453323672e-02  -3.1086322668204155e-02 1.7204628564544466e-01 3.3200558738435429e-02  -3.2172971768096373e-02 1.7168702877317032e-01 3.5740878481194810e-02  -2.9397042686036590e-02 1.6442019954750928e-01 3.6790353361113609e-02  -3.2329839266653525e-02 1.7116263254600061e-01 3.3472949205116911e-02  -3.3239537541078355e-02 1.7039025398621482e-01 3.7262818016921974e-02  -3.0795193560446518e-02 1.6244919197381860e-01 3.8644207473411678e-02  -3.3555184856639220e-02 1.6959719147888896e-01 3.3418891872764402e-02  -3.4293454086816028e-02 1.6835688089457423e-01 3.8468142318986646e-02  -3.2340140797332814e-02 1.5968344611277260e-01 4.0312830539319472e-02  -3.4812012795718918e-02 1.6730638295589612e-01 3.3007107220537173e-02  -3.5406089170183883e-02 1.6550879382310554e-01 3.9268505322396126e-02  -2.7013811942358204e-02 1.0335057492076684e-01 3.1650898827143815e-02  -2.7629447870603750e-02 1.0263405842911626e-01 2.3775394647749429e-02  -2.8293991516850706e-02 1.0176264486022438e-01 1.6436407729330752e-02  -2.8971225863131042e-02 1.0074170371763434e-01 9.3091620430543441e-03  -2.9618385633199903e-02 9.9574351602791766e-02 2.0948266746325800e-03  -3.0192498366953733e-02 9.8266108511577493e-02 -5.4725808501622083e-03  -3.0634915661592564e-02 9.6815642380862418e-02 -1.3657016677434998e-02  -3.2140383424089321e-02 1.3063943387845059e-01 2.7641285917888350e-02  -3.2922914944837255e-02 1.3146548445102543e-01 2.0582991125499647e-02  -3.3712237719578667e-02 1.3177886551634474e-01 1.3900263654150076e-02  -3.4383908407991381e-02 1.3171439465080631e-01 7.2762560475329715e-03  -3.4953309119324344e-02 1.3136098087118078e-01 4.8016669953112180e-04  -3.5418068773719440e-02 1.3080408335507041e-01 -6.6743987327997781e-03  -3.5769332240736307e-02 1.3014017922737961e-01 -1.4294369831562128e-02  -1.4220490086695441e-02 1.4276605543706491e-01 2.9859919406695148e-02  -1.6301523686818135e-02 1.4399964871330317e-01 2.8656716772459217e-02  -1.8087135090475208e-02 1.4481397246554492e-01 2.7310094397584965e-02  -1.9816177996275469e-02 1.4511295961633963e-01 2.5913897085228715e-02  -2.1603506190100503e-02 1.4487073340430318e-01 2.4452026555565439e-02  -2.3499846098809018e-02 1.4402870113739513e-01 2.2904413333671287e-02  -2.7292239130782971e-02 5.8074320655666090e-02 2.9999057872937055e-02  -2.7179373416842394e-02 5.4014425977638364e-02 2.2569946698607325e-02  -2.7252531187036456e-02 5.0561284090256245e-02 1.5532133093287912e-02  -2.7439358395490925e-02 4.7509117993738782e-02 8.5471022393730344e-03  -2.7689072491836719e-02 4.4726180345058507e-02 1.3551162526990244e-03  -2.7963373102195519e-02 4.2111042840663623e-02 -6.2618391971818359e-03  -2.8178015905471660e-02 3.9527815656639965e-02 -1.4503467770215715e-02  -3.8665828458694790e-02 1.7199840512495324e-01 3.4366529018336173e-02  -3.8980897868448716e-02 1.7417514312803134e-01 3.2613870120690461e-02  -2.3712779924616997e-02 1.6724401725913074e-01 2.9286013451073609e-02  -2.5232314684713771e-02 1.6825164338320484e-01 3.0805801494914260e-02  -2.6908124014349936e-02 1.6877032214736043e-01 3.1634359392559430e-02  -2.8433284718745767e-02 1.6866014520177558e-01 3.2225440394727613e-02  -2.9880796349373226e-02 1.6792473314702736e-01 3.2576610110018535e-02  -3.1329865150401523e-02 1.6653336807480673e-01 3.2661716263006971e-02  -3.2869301628351333e-02 1.6438495224228250e-01 3.2431457543958889e-02  -3.5504750014372588e-02 1.0289060449564631e-01 2.3664962869879957e-02  -3.4049823212612004e-02 9.4748322053389178e-02 2.3520300077914169e-02  -3.4598722879891658e-02 1.1329813377582432e-01 2.4985384909386170e-02  -3.4943726034179383e-02 1.1288245339760961e-01 1.6331951546244654e-02  -3.4112707720929676e-02 9.3009941552833902e-02 1.4488072369055053e-02  -3.5617359004814025e-02 1.0179610962742570e-01 1.4625584550919366e-02  -3.5280236942523954e-02 1.1223678451936070e-01 8.2498806401541842e-03  -3.4234748483873492e-02 9.1388942882254118e-02 6.0481856867802657e-03  -3.5759670957701009e-02 1.0068466096952697e-01 6.1759331798695270e-03  -3.5588789358547986e-02 1.1140899328082701e-01 3.5818371570412258e-04  -3.4380328135679795e-02 8.9815963595893833e-02 -2.1847746181759375e-03  -3.5904680948575261e-02 9.9531189834091566e-02 -2.0602804929930182e-03  -3.5857100910783382e-02 1.1044277327654158e-01 -7.6163875299545001e-03  -3.4526392905646866e-02 8.8255733599679850e-02 -1.0493579527057375e-02  -3.6035676713873983e-02 9.8326683105080318e-02 -1.0364338618084709e-02  -3.6079995279058565e-02 1.0937177461348954e-01 -1.5870623046489455e-02  -3.4655568462206750e-02 8.6690330243851990e-02 -1.9092201212851198e-02  -3.6141894475042707e-02 9.7071158658942655e-02 -1.8954901372612624e-02  -3.6247809010927286e-02 1.0819636985706010e-01 -2.4561044555780037e-02  -3.4753067106602316e-02 8.5126048219498193e-02 -2.8138318703517236e-02  -3.6226803179114711e-02 9.5792286079687372e-02 -2.7999855862933257e-02  -2.6208775112391381e-02 6.4941451286257251e-02 3.1756379095813851e-02  -2.6316396686490332e-02 6.1448188483236584e-02 2.4038331673800473e-02  -2.6557531167220903e-02 5.8374354011069898e-02 1.6784588932091699e-02  -2.6878215527715625e-02 5.5623198634027288e-02 9.6442647670841215e-03  -2.7237341018151721e-02 5.3070357163271575e-02 2.3252075173746142e-03  -2.7615852398001042e-02 5.0641303995724946e-02 -5.4055932218252337e-03  -2.7990850091403997e-02 4.8272142713908499e-02 -1.3752140939461298e-02  -2.3867432004188262e-02 1.1699037581083527e-01 3.2544495021711813e-02  -2.4683889109495240e-02 1.1747917246220990e-01 2.6133806779416065e-02  -2.5686375262285489e-02 1.1744404850167296e-01 2.0078992450409821e-02  -2.6703278687442909e-02 1.1703641650816014e-01 1.4113490549003110e-02  -2.7693970935367331e-02 1.1629460584913583e-01 8.0054078905525631e-03  -2.8616746083493981e-02 1.1523265518209713e-01 1.5130898739031452e-03  -2.9413627222502955e-02 1.1388694651682756e-01 -5.6380841773864890e-03  -3.5777310412546809e-02 1.6991575388988697e-01 3.3662077059063190e-02  -3.6325382820212623e-02 1.7199143272501075e-01 3.1706917937894083e-02  -3.8921345058856999e-02 1.6692817137910057e-01 2.5190638737308799e-02  -3.7300622268505494e-02 1.7320438352445983e-01 2.9483876882286125e-02  -3.9672900376813820e-02 1.7543128885567599e-01 3.0595682100448326e-02  -2.5222292784916889e-02 1.5184177738558499e-01 3.1213755292084321e-02  -2.7236779141484525e-02 1.4748894364013426e-01 3.1294880734456874e-02  -2.5718210478645712e-02 1.4034445898520870e-01 3.1204348229472961e-02  -2.6558865880193527e-02 1.4150161319602453e-01 2.6517735149282923e-02  -2.8044306687585271e-02 1.4900140745347543e-01 2.7142067813121160e-02  -2.6218065180039812e-02 1.5334368752988722e-01 2.8203939891697265e-02  -2.7817657251622285e-02 1.4205415653431278e-01 2.1889246876382648e-02  -2.9344960113643844e-02 1.4985322688470132e-01 2.2943865987578055e-02  -2.7638907363100994e-02 1.5422358820037638e-01 2.4958191992487857e-02  -2.9018738228518234e-02 1.4213805267796709e-01 1.7214456556527521e-02  -3.0592231661688816e-02 1.5019321163510638e-01 1.8694321381718924e-02  -2.9003698728575472e-02 1.54558666730