<?xml version="1.0"?>
<VTKFile type="UnstructuredGrid"  version="0.1"  >
<UnstructuredGrid>
<Piece  NumberOfPoints="994" NumberOfCells="4295">
<Points>
<DataArray  type="Float64"  NumberOfComponents="3"  format="ascii">6.905203148909488 3.106466480611352 0.8311277925600959  6.914504181079721 3.005588590587344 0.8192479230487846  6.802521616621595 3.01424666468752 0.8307585520103024  6.796845639263031 3.021684465981439 0.7620549262484472  6.908726542243934 3.012658273336404 0.7506520406743196  6.90033978547654 3.12072068389419 0.7630675452224255  6.791124335496541 3.029007104916187 0.6934205870534002  6.90289093297303 3.019639669012812 0.6821223530166233  6.895435402199363 3.134874570384127 0.6950368791743435  6.785375681129553 3.036250660954525 0.6248514447732261  6.897009798170204 3.026574289885338 0.6136350683726086  6.890504498899816 3.14896882732 0.6270268338820884  6.779620017806833 3.043464977587905 0.5563232752338145  6.891111533539732 3.033493955596634 0.5451714671021182  6.885557580962354 3.163042679886928 0.5590259739767743  6.773886179370569 3.050685264439044 0.4878215432581042  6.885242995316278 3.040399122401602 0.4767236954032616  6.880624584771092 3.177101642646059 0.4910312066107662  6.76820789091815 3.057903479700443 0.4193372065644068  6.879433186852483 3.047280966625194 0.4082829910670856  6.875740268188824 3.191144966845747 0.4230429055431963  6.804256076306654 3.156342468281419 0.8519473995023085  6.799052027022913 3.175084761246679 0.784799522053829  6.793811465760776 3.193709551028311 0.7176791354375242  6.788560541772812 3.212258255311957 0.6505808155763997  6.783313890926332 3.230768163752801 0.5834972650306871  6.778072016924283 3.24927914170086 0.5164243452701018  6.772845524927612 3.267812509184768 0.4493791267135748  7.376440303582541 3.802851683860807 1.269222908809696  7.304210985964274 3.752458582419564 1.21118868904531  7.213932430564562 3.824005962749197 1.312733091601731  7.301266954788028 3.803798408840486 1.166318939314198  7.373663796969425 3.856919955424378 1.227921978144125  7.211412184539999 3.87812834156478 1.272330577219584  7.208783906327801 3.93227676196844 1.231973844040864  7.298244172240628 3.855160910815647 1.121432401252816  7.370789001081679 3.911000921438796 1.186607651118477  7.206083625128379 3.986432290788718 1.19162644885796  7.295158770529324 3.906525003695168 1.076525481346547  7.367842428163601 3.965089309148928 1.145265854345026  7.203349074258224 4.040576542109258 1.151255153418979  7.292037471576401 3.95788515858434 1.031579736369412  7.364854007154437 4.019182739547438 1.103881390599627  7.200623406227039 4.094694243730236 1.110830325906134  7.288907681160576 4.009248499613721 0.98657543490591  7.361850836560713 4.073289256015115 1.062444239096723  7.197940089070341 4.148773906989372 1.070324681678462  7.285813983058394 4.060635510095892 0.9414810017970964  7.358863829490603 4.127405297002888 1.020934741341471  7.377267140918786 2.852280727429805 0.7814537232897586  7.265002608982934 2.785665894069089 0.7869065705812438  7.288726453159245 2.937100169943909 0.7778717200081235  7.285289053008006 2.938909176421264 0.7088347614841961  7.262305719001437 2.778745977463883 0.7192803593123773  7.378550382229705 2.847997564613188 0.7131438294914709  7.379695790711088 2.843822755069381 0.6447763857753673  7.259423503885106 2.771917410060267 0.6516106212193177  7.281715055219191 2.94079236995977 0.6397777502905392  7.380798111059268 2.83965236778935 0.5763621519841439  7.256478710294472 2.76509193311217 0.5839057681052606  7.278094846242023 2.942667972884705 0.5707004477225343  7.253551014838111 2.758212292899559 0.5161788026618351  7.381913838305233 2.835424062047601 0.5079142351285512  7.27448577799184 2.944493190406823 0.5016035229004825  7.250697644255353 2.751233656584656 0.4484335607754075  7.3830844397933 2.83109017893869 0.4394458455697716  7.270930615095927 2.946234544330261 0.4324878829636776  7.38435138957931 2.826611918415128 0.3709671491856105  7.247966945044912 2.744122201714517 0.3806684913911628  7.267465010286293 2.947862622520165 0.363357315298877  7.171802221154011 2.896380349070776 0.7883053258005677  7.164671032845148 2.896908893586893 0.7199042130173113  7.157375937287695 2.897478407055701 0.6515076562009918  7.150015086807096 2.898043540815881 0.5831057134924846  7.142659300463317 2.898572454764628 0.5146968316135225  7.13536755944726 2.899036639538835 0.4462791990727252  7.128188431920657 2.899402229936931 0.3778463953196936  7.493404039023377 3.059764255259846 0.7844659632827613  7.407295076591783 2.985759333590051 0.7800060692118785  7.402113839017683 3.133233264640328 0.7990771946530392  7.401297106419205 3.146376877272068 0.7301087164013811  7.407936069919103 2.989051658047709 0.7106132056587394  7.496797433906421 3.067970126346344 0.7147864778549281  7.400386806703681 3.159560384659748 0.6611482392492236  7.40846751579692 2.992424368163452 0.6412011386285968  7.500102518487609 3.076218317951778 0.6451017797119731  7.399445417157009 3.172725512314134 0.5921664910748315  7.408966109253067 2.995793705377905 0.5717620642253979  7.503384595843474 3.084450023040481 0.5753966698575561  7.398506524557134 3.185846040032537 0.5231597889846746  7.40947541420623 2.999111433871609 0.5022991001033085  7.506678353205416 3.092631074025654 0.5056678857161138  7.39759732796295 3.198902257793424 0.4541330430069884  7.410029618734142 3.002340982254748 0.432817972791403  7.510011777507163 3.100734155056533 0.4359177613756673  7.396741552816261 3.211868127833151 0.3850962449717797  7.410658653028706 3.005445671856382 0.3633259524253584  7.51342067899511 3.108736946066828 0.3661528845320682  6.967523190335042 3.423420253144295 0.9607268255864715  6.910466113105826 3.319410504743972 0.9049605144180178  6.821776467698252 3.387011891802922 0.9473127324782122  6.816509269127278 3.421089408603962 0.8869015745107789  6.905260351212993 3.347812334577133 0.8415806028978088  6.962232677795858 3.460073184997855 0.9022438420224365  6.81123236703885 3.455087252366686 0.8264450489119501  6.900039954317362 3.376124262894212 0.7781738025433574  6.956934113435373 3.496659884153812 0.8437180601915103  6.805950812925655 3.489033703157467 0.7659619732065974  6.894810607805609 3.404377263775873 0.714748772496218  6.951619275405785 3.533215091859271 0.7851634706827822  6.800670533199463 3.522948697432875 0.7054601686909631  6.889570741831592 3.432607933016756 0.6513088872163082  6.946290639314263 3.569757100571918 0.726583653030024  6.795397448792693 3.556861833016347 0.6449396434478679  6.884322325312196 3.460836107003103 0.5878552211973215  6.940951065602437 3.60629423058191 0.6679793521699182  6.79011883055563 3.590804763212965 0.5844082181563076  6.879071069732184 3.489070891038614 0.5243894172257746  6.935596886010069 3.642840350999045 0.609356260447143  6.86716891946144 3.559365378144776 0.8931627348006964  6.862915824774861 3.597706867633827 0.836004975368403  6.858658935245761 3.636027059338459 0.7788186126955687  6.854395090831951 3.67434879765251 0.7216093931430267  6.850129394474389 3.712693029814483 0.6643801637427109  6.590496019855393 2.462317118844605 0.6755011494752775  6.655547102446524 2.561630781632251 0.6266656690757775  6.524457490035138 2.59900851114667 0.6289768231981853  6.59682587542255 2.486082304112418 0.7364924786644418  6.663625065049789 2.581385711818147 0.6897995488679878  6.517007732751797 2.581027286976506 0.5647005135359388  6.584227936666515 2.438605927517605 0.6146075427798392  6.647548545658033 2.541913919352038 0.5636041603714165  6.509722270179454 2.563151384545314 0.5004920096388877  6.578120939472432 2.415012383938151 0.5537961051902547  6.639705482918118 2.522269814940608 0.5005926218612416  6.879025683656157 2.904917791129066 0.8137869745239983  6.873541163463084 2.904111006384738 0.7451218847155116  6.867982744621993 2.90322820863071 0.6765530826896409  6.862365091081785 2.902301874639945 0.6080374675863961  6.856736597712797 2.901368240235721 0.5395545192181291  6.851159002908749 2.900430043113155 0.4711033365677032  6.84566831845293 2.899494916068115 0.4026796133847088  7.307042184146681 3.067866635636987 0.7897187763138147  7.302500196932831 3.078383746484314 0.7208593736958182  7.29785958358954 3.088944035658119 0.6520077084176443  7.293180847014543 3.099491304172826 0.5831426819887913  7.288505689420935 3.109993580176499 0.5142592493736057  7.283865097060287 3.120426606810484 0.4453565446639439  7.279284313897513 3.130771196602463 0.3764329644424146  6.919018965216327 2.726076784902617 0.8341698640675275  6.799095514520823 2.669223738348663 0.854576872087108  6.842655685601433 2.807488562399872 0.828879502705523  6.836674616331329 2.797824044685537 0.7618096624486171  6.790649219574062 2.652158701392128 0.7902738930707202  6.912294648548689 2.715925260333821 0.768038416402424  6.830600257246302 2.78809970844166 0.6948476392519773  6.782074428626142 2.63502572129635 0.7261006678626394  6.905434567624574 2.705727098885635 0.7019932540028226  6.824462492635724 2.778344404086103 0.6279591009167946  6.773417179520487 2.617878365125356 0.6620046040034722  6.898471806858149 2.695531086770235 0.6359910345180551  6.818308492743935 2.768588013731388 0.5611119015762331  6.764753093687023 2.600743113638776 0.5979672304258877  6.891496548977434 2.685334294296342 0.5700187313492127  6.812213645389387 2.758832934818031 0.4943012282362152  6.756180174414529 2.583627708599039 0.533986519721897  6.8845973795433 2.675128636515132 0.504072099753031  6.806240387081573 2.749085431905486 0.4275273550929181  6.747787687547111 2.566546683112609 0.4700594270225791  6.877853503582922 2.664912018855042 0.4381701596232013  7.302455782394397 3.206925851342042 0.8177639524813863  7.294982487427482 3.227189915930483 0.7507675735300148  7.287454713090968 3.247464490506573 0.6837791499390814  7.279899707018544 3.267715625735418 0.6167740254086665  7.27234256190554 3.287927632190799 0.5497462136921907  7.264798221660982 3.308084373785156 0.4826969082535906  7
[...]
<PointData  Vectors="f_16"> 
<DataArray  type="Float64"  Name="f_16"  NumberOfComponents="3" format="ascii">-1.0195724430893859e-02 -2.2438218267077911e-02 2.0870056015249966e-02  -1.0183793481879576e-02 -2.3741252539509480e-02 1.5204503301906530e-02  -8.7378503575643880e-03 -2.3982491233719191e-02 1.6222979177305162e-02  -8.4423229804976730e-03 -2.2039374998367924e-02 1.6664335064693864e-02  -9.9302832879389104e-03 -2.1692400668630926e-02 1.5630788278597488e-02  -9.9100957396714550e-03 -2.0961944896672715e-02 2.1692160601955657e-02  -8.5624255930958695e-03 -1.9181292987545728e-02 1.7014882713017279e-02  -1.0182487126914675e-02 -1.8894726537036926e-02 1.5984018676181988e-02  -1.0150509438537406e-02 -1.8209497996621863e-02 2.2401885650194343e-02  -8.7479100078807926e-03 -1.6324905128892779e-02 1.7309514561134751e-02  -1.0477847115547013e-02 -1.6065043582863602e-02 1.6273283758537153e-02  -1.0577756694745515e-02 -1.5425626383029845e-02 2.2980967277039206e-02  -9.0140460878686459e-03 -1.3373935701533521e-02 1.7521862265809412e-02  -1.0831468611453243e-02 -1.3151304312521967e-02 1.6478179346878809e-02  -1.1013354016175749e-02 -1.2582306142838803e-02 2.3406205452919316e-02  -9.3087868835082417e-03 -1.0267645008475216e-02 1.7654849286180319e-02  -1.1206273827227345e-02 -1.0091562042843722e-02 1.6602418545509146e-02  -1.1458797428958622e-02 -9.5622264900948641e-03 2.3710311236140990e-02  -9.5935564347283449e-03 -6.9464295267259706e-03 1.7718191896310784e-02  -1.1593438728104730e-02 -6.8454201382461425e-03 1.6678427894487705e-02  -1.1924750237325841e-02 -6.2924494632263317e-03 2.3976651566428222e-02  -8.9915202803395478e-03 -2.2017711554158246e-02 2.4269027217818078e-02  -8.6405825639581935e-03 -2.1064425304812649e-02 2.5306821449635978e-02  -8.6866410734305812e-03 -1.8549689242269341e-02 2.6243677911715883e-02  -9.0621543816692390e-03 -1.5802530646681426e-02 2.7012622202246133e-02  -9.4328150949982304e-03 -1.3041609704985907e-02 2.7579794872758270e-02  -9.8092215156540038e-03 -1.0094989454761739e-02 2.8002402301680572e-02  -1.0183618946447578e-02 -6.8310628621492059e-03 2.8374484426426202e-02  -1.6174742234774241e-02 1.7961289424298952e-02 4.1470621039793730e-02  -1.5328467799401283e-02 1.0793332345181896e-02 4.2256489598247314e-02  -1.4768670325416178e-02 2.2331236967258621e-02 4.2419002628782086e-02  -1.5689630583777956e-02 6.0526809438394939e-03 4.1007507698405825e-02  -1.6585626298304807e-02 1.2943432419036924e-02 3.9289685017000725e-02  -1.5174680975524322e-02 1.7212446694040609e-02 3.9892918065072329e-02  -1.5612954843928602e-02 1.2776906414297799e-02 3.7178575462886845e-02  -1.6083434607003972e-02 2.0087360282945521e-03 3.9391261445713442e-02  -1.7037968061150949e-02 8.6544856231356611e-03 3.6854950508764493e-02  -1.6046720549331945e-02 8.8529855423027937e-03 3.4177803414936835e-02  -1.6380179687023592e-02 -1.5532019366374856e-03 3.7397434507797818e-02  -1.7391360691067094e-02 4.8246937138726916e-03 3.4063698732937846e-02  -1.6363328086240223e-02 5.2500210098543722e-03 3.0793895917890099e-02  -1.6508191525485577e-02 -4.7541817164726812e-03 3.4986147523792324e-02  -1.7576200161883420e-02 1.2896342630645027e-03 3.0830794769483770e-02  -1.6561118426898579e-02 1.8295820742072020e-03 2.6970437773660431e-02  -1.6610477096700150e-02 -7.5410012161068931e-03 3.2075826983656332e-02  -1.7660380284020033e-02 -1.9900331836300504e-03 2.7108598711517218e-02  -1.6733164509350945e-02 -1.4656558771858040e-03 2.2641120964289791e-02  -1.6890114800916397e-02 -9.9137243191192610e-03 2.8608558403715421e-02  -1.7809030510445713e-02 -4.9998689961054674e-03 2.2858932903893611e-02  -1.5926981569822061e-02 -2.4622709263520989e-02 3.6797673824392287e-03  -1.4515278869612265e-02 -2.5776228396441562e-02 1.7452848489812193e-03  -1.4974163750179743e-02 -2.3368482903181127e-02 8.6724655692025938e-03  -1.5362828535645049e-02 -2.0792109716559173e-02 8.8137866572668179e-03  -1.4870294395025940e-02 -2.3151730558141289e-02 1.5614839413175571e-03  -1.6546844233612225e-02 -2.1970199749245578e-02 3.5671014966342247e-03  -1.7162282381432595e-02 -1.9386973111950773e-02 3.3979372071239232e-03  -1.5323411160105476e-02 -2.0660206697494621e-02 1.3337387300677848e-03  -1.5902232461038227e-02 -1.8072989841630742e-02 8.9450114010864949e-03  -1.7801831497244177e-02 -1.6733753125883377e-02 3.2099573126527130e-03  -1.5806449249336885e-02 -1.8095824818788915e-02 1.0868420103120559e-03  -1.6481175093624900e-02 -1.5309195130227739e-02 9.0293335990500757e-03  -1.6326422341715375e-02 -1.5441430701906615e-02 8.2098911113774294e-04  -1.8448490258716893e-02 -1.4003984139832266e-02 2.9996547459343456e-03  -1.7082788220547068e-02 -1.2477272171508347e-02 9.0666552233502808e-03  -1.6893485162462921e-02 -1.2682447179425373e-02 5.4200300468815112e-04  -1.9110960827330992e-02 -1.1167809937259649e-02 2.7712553567143714e-03  -1.7710998746375804e-02 -9.5409763421405204e-03 9.0658589809536252e-03  -1.9810911221348662e-02 -8.1775605595024066e-03 2.5343865108286923e-03  -1.7518251666020945e-02 -9.7902378851351980e-03 2.6407996403576259e-04  -1.8383626823947716e-02 -6.4387954129703972e-03 9.0528158712182977e-03  -1.3503219798029643e-02 -2.4355611119738611e-02 7.7382721131070446e-03  -1.3580706918860756e-02 -2.1782917851672686e-02 7.8519017845219315e-03  -1.3931671908304324e-02 -1.9120157517924025e-02 7.9526015043581422e-03  -1.4342069901609135e-02 -1.6401952544175993e-02 8.0103019304789431e-03  -1.4795712918075561e-02 -1.3601356429744390e-02 8.0234153353656804e-03  -1.5299444656041595e-02 -1.0697387280027362e-02 7.9945527338480885e-03  -1.5873095001233042e-02 -7.6609626969289619e-03 7.9286320106055942e-03  -1.7597575080755434e-02 -2.1567803263451431e-02 1.2671662438669150e-02  -1.6468302132695966e-02 -2.2616190132914049e-02 9.8737278300109112e-03  -1.6445826031148494e-02 -2.0871742271136293e-02 1.7721360493313187e-02  -1.7084600315723179e-02 -1.9041097303116115e-02 1.8440043740392362e-02  -1.7141988204553302e-02 -2.0103332886494633e-02 1.0029406498356576e-02  -1.8507125338497573e-02 -1.9178687475249964e-02 1.3115437665495349e-02  -1.7887075119085952e-02 -1.6244412777642808e-02 1.9084109071024313e-02  -1.7869061710881953e-02 -1.7340460176338422e-02 1.0178131174727963e-02  -1.9386507840287039e-02 -1.6366528754806455e-02 1.3436557908124678e-02  -1.8699258112784840e-02 -1.3574338574205862e-02 1.9544139963527826e-02  -1.8607460606432022e-02 -1.4572761181710039e-02 1.0282837456362035e-02  -2.0250651310931091e-02 -1.3599731405416052e-02 1.3662312900153887e-02  -1.9514044045214934e-02 -1.0838462257771889e-02 1.9864750739601637e-02  -1.9341603968680433e-02 -1.1737845381724120e-02 1.0325902218278763e-02  -2.1100813754016585e-02 -1.0765269487816396e-02 1.3799451426049936e-02  -2.0350972886509718e-02 -7.9302607742109191e-03 2.0115130037008572e-02  -2.0071988333419465e-02 -8.7814417492481176e-03 1.0333063494545046e-02  -2.1940075889617907e-02 -7.7804027950989698e-03 1.3884848804489825e-02  -2.1220772523995866e-02 -4.7698374773035212e-03 2.0364649734800278e-02  -2.0819274089743919e-02 -5.6624333970959097e-03 1.0327829401826229e-02  -2.2784763148119714e-02 -4.5952442421749833e-03 1.4004038222298868e-02  -1.1565562792395328e-02 -1.4759091799313681e-02 3.7506925617614699e-02  -1.0753378306435815e-02 -1.8592079705883630e-02 3.2720639609166824e-02  -9.9062260144156342e-03 -1.6631966676128571e-02 3.6710658648010749e-02  -1.0112494109772229e-02 -1.8426676706838899e-02 3.8024618955952050e-02  -1.0792000225681596e-02 -1.9533988655002422e-02 3.4030925333798930e-02  -1.1969756746686962e-02 -1.6984718468517995e-02 3.8779803990713499e-02  -9.7458255520352834e-03 -1.8488767886384160e-02 3.9299745951281037e-02  -1.0408381211098671e-02 -1.8570047378930390e-02 3.5316872713226775e-02  -1.1827313207370899e-02 -1.7687844870127489e-02 4.0004477295008035e-02  -9.6466647147722632e-03 -1.7397648547414640e-02 4.0348062947325666e-02  -1.0743247200850622e-02 -1.6687841446098250e-02 3.6333559967681540e-02  -1.1708335476369484e-02 -1.7131891289073858e-02 4.1004818570387354e-02  -1.0013193118855299e-02 -1.5879434170603335e-02 4.1022172122445306e-02  -1.1241221285567012e-02 -1.4632568345141756e-02 3.6997784706021102e-02  -1.2110445123145580e-02 -1.6026388845468111e-02 4.1637238709643108e-02  -1.0416225587035643e-02 -1.4178243801679981e-02 4.1285177636866947e-02  -1.1739145075343958e-02 -1.2389874863008729e-02 3.7376817659254075e-02  -1.2624076179844379e-02 -1.4675135529858309e-02 4.1818538739648060e-02  -1.0847236118458274e-02 -1.2080939553772764e-02 4.1299808042790043e-02  -1.2272433633389597e-02 -9.7747692204494668e-03 3.7588443067200182e-02  -1.3199398048312362e-02 -1.2892544268848840e-02 4.1631431069219002e-02  -1.1192751500534748e-02 -1.6492207623951378e-02 4.2500237042663105e-02  -1.0918774920777344e-02 -1.6803691625012485e-02 4.3279853148212304e-02  -1.1080171823959855e-02 -1.6383287203886883e-02 4.3657377118067074e-02  -1.1470558437894273e-02 -1.5612986834532537e-02 4.3545835076017801e-02  -1.1919444133960797e-02 -1.4445518508966472e-02 4.2951617242084600e-02  -5.4968072005606534e-03 -2.5342442884112241e-02 -8.9276598136532898e-03  -6.5838037673734574e-03 -2.1991645100530460e-02 -5.0521786245000325e-03  -4.4997207680616763e-03 -2.1405758940753302e-02 -3.8380696760519049e-03  -5.6541477519598607e-03 -2.7473807819503811e-02 -8.0592505208797512e-03  -6.6451035553796636e-03 -2.4364614844271985e-02 -4.2411847142560547e-03  -4.4060688582316212e-03 -1.8696619470228614e-02 -4.6848789149254470e-03  -5.4005439033762382e-03 -2.3050417886291610e-02 -9.8342571795688796e-03  -6.6008537999269201e-03 -1.9451477763554589e-02 -5.8960881341178798e-03  -4.3886909957837781e-03 -1.5845505509175999e-02 -5.5830886841339378e-03  -5.3352968348353768e-03 -2.0597573235415893e-02 -1.0784915188424143e-02  -6.6877420731143401e-03 -1.6751019067966715e-02 -6.7944135779990410e-03  -9.6750040403087764e-03 -2.5185742680060859e-02 1.0048718248694107e-02  -9.4712832580319747e-03 -2.2602506379728608e-02 1.0069408584313259e-02  -9.6141972343413550e-03 -1.9960922812617524e-02 1.0048698987525280e-02  -9.8186625616830166e-03 -1.7200650467244345e-02 9.9776055974431059e-03  -1.0074657065146155e-02 -1.4314145308451660e-02 9.8507691821533416e-03  -1.0371359940223276e-02 -1.1273913920169579e-02 9.6639840010202694e-03  -1.0701658513387950e-02 -8.0472970820755149e-03 9.4218549827726709e-03  -1.5282425573487926e-02 -2.1786194279039686e-02 1.5301863272463223e-02  -1.5650623336638761e-02 -1.9598726633204697e-02 1.5890327360510336e-02  -1.6333164223402714e-02 -1.6804176057486801e-02 1.6440259239233226e-02  -1.6990838036287374e-02 -1.4050517571894437e-02 1.6874867048074345e-02  -1.7671986820583064e-02 -1.1234297580666082e-02 1.7196537210897651e-02  -1.8404088331116942e-02 -8.2755027960253989e-03 1.7452407739553959e-02  -1.9202917101030111e-02 -5.1065056150360420e-03 1.7729110882764777e-02  -1.0322728704394666e-02 -2.8577082491538831e-02 1.2870207746838000e-03  -8.9509327962782031e-03 -3.0113379417185407e-02 -8.3209098823745569e-04  -9.2572263435308048e-03 -2.7212979634243750e-02 5.2968968958677981e-03  -8.9779744442042477e-03 -2.4485355556634777e-02 4.9661175947609002e-03  -8.5429995889961061e-03 -2.7421485594405538e-02 -1.4271535249400424e-03  -1.0065791543229560e-02 -2.5790018521596184e-02 9.8433130407044977e-04  -9.0223527897828754e-03 -2.2046745267780155e-02 4.5657588641322194e-03  -8.3293964681004310e-03 -2.5152901599331944e-02 -2.0615304230028105e-03  -1.0069983543097707e-02 -2.3389869966309734e-02 6.3091981172210562e-04  -9.1298805212559394e-03 -1.9483436619282358e-02 4.1245504555252593e-03  -8.3040153414297001e-03 -2.2858376735702363e-02 -2.7316129118448548e-03  -1.0211790426612464e-02 -2.0938075664106274e-02 2.4110566853898749e-04  -9.3027500393641702e-03 -1.6784482145431424e-02 3.6437050143973910e-03  -8.3608714348374739e-03 -2.0420118157976518e-02 -3.4343891143258434e-03  -1.0416759158160861e-02 -1.8355427670406224e-02 -1.8670034088011584e-04  -9.5344427275446397e-03 -1.3934404434819910e-02 3.1191367346377450e-03  -8.5000328371891854e-03 -1.7821790688139046e-02 -4.1758649025276399e-03  -1.0694872831390496e-02 -1.5638477585442005e-02 -6.5262768964438633e-04  -9.8132396931040287e-03 -1.0912467747649906e-02 2.5611332387421855e-03  -8.7284257319664091e-03 -1.5077005126621246e-02 -4.9602030920277672e-03  -1.1040922374280785e-02 -1.2778650374325923e-02 -1.1568208527995422e-03  -1.5352783857347561e-02 -2.0207485235347860e-02 2.3029443881962271e-02  -1.5482566982544665e-02 -1.9051040391556539e-02 2.4202236078372290e-02  -1.6141940863193524e-02 -1.6458153771477999e-02 2.5223690915351666e-02  -1.6817682284141964e-02 -1.3969527312753898e-02 2.5970939405591371e-02  -1.7538406543562125e-02 -1.1421952911477068e-02 2.6522209269341165e-02  -1.8342073273855047e-02 -8.6708238700360669e-03 2.6967279789554849e-02  -1.9285468045286823e-02 -5.6438038253380594e-03 2.7451937685368653e-02  -1.4371003173921650e-02 7.1688693632924825e-03 4.3000569512150026e-02  -1.4750573565336976e-02 2.6777669471269748e-03 4.2180166851556969e-02  -1.5114204729822783e-02 -1.1369129234254111e-03 4.1006343276833009e-02  -1.5404035635223188e-02 -4.5111315232501965e-03 3.9451997143708881e-02  -1.5518603313550466e-02 -7.4329688236716941e-03 3.7500422076725812e-02  -1.5628798100095157e-02 -9.8262645847105746e-03 3.5046111874219868e-02  -1.5986343745423657e-02 -1.1772156282124364e-02 3.1989525204210105e-02  -1.3021609229409613e-02 -2.6444168511972298e-02 2.2907575476611747e-03  -1.3061908948380749e-02 -2.3799856358815943e-02 2.1115306559226742e-03  -1.3328951368329497e-02 -2.1333070496158225e-02 1.8925110506811890e-03  -1.3634771009608025e-02 -1.8797199773654506e-02 1.6478868939079651e-03  -1.3994821097196575e-02 -1.6165527094513160e-02 1.3775402911431723e-03  -1.4422911158218355e-02 -1.3430332106821728e-02 1.0856282066154849e-03  -1.4944648666914447e-02 -1.0588489569687680e-02 7.9690672162649110e-04  -8.2027837370351343e-03 -2.5783350664942639e-02 9.6790285022078058e-03  -7.9771116480956590e-03 -2.3198473842421807e-02 9.5414446052462173e-03  -7.9633669773578487e-03 -2.0513998140377413e-02 9.3558379153326262e-03  -8.0294126049531653e-03 -1.7745411156940033e-02 9.1431758457819739e-03  -8.1657197312726779e-03 -1.4835061917413489e-02 8.8703315854413399e-03  -8.3530951149937312e-03 -1.1762570757446213e-02 8.5445666784929944e-03  -8.5882744367408882e-03 -8.5089819965189425e-03 8.1716901425358812e-03  -1.3545516212950902e-02 1.2237260726034812e-03 4.3356877472517485e-02  -1.3828386049198525e-02 1.4255224847921419e-02 4.3398341629362472e-02  -1.4203994511429185e-02 9.4424252339614552e-03 4.1756954747472291e-02  -1.3906375861379021e-02 -2.7958112821232116e-03 4.3229040156544274e-02  -1.4575253754809890e-02 5.3056634778243846e-03 3.9804725710117866e-02  -1.4251168550479051e-02 -6.2089937759101784e-03 4.2725940833932191e-02  -1.4934964172012745e-02 1.6806279403981995e-03 3.7530201251384107e-02  -1.4494707269191578e-02 -9.0617142366466799e-03 4.1859104630904254e-02  -1.5176405471916310e-02 -1.5986583554399737e-03 3.4866214356974859e-02  -1.4556630995201337e-02 -1.1262995384061236e-02 4.0602859749220857e-02  -1.5294934139416740e-02 -4.6208932053194776e-03 3.1725430072275261e-02  -1.4737583209530758e-02 -1.2851803879317947e-02 3.8831902191242572e-02  -1.5488526197227053e-02 -7.3759300738286473e-03 2.8048215798734510e-02  -1.5196963403169960e-02 -1.3966597497433311e-02 3.6447027222552428e-02  -8.0541102755550889e-03 -2.8562266248735750e-02 3.2841278086186885e-03  -7.6470234251071285e-03 -2.5783838754404213e-02 2.8560153421372187e-03  -7.4967766151825335e-03 -2.3375457291516171e-02 2.3584190978761014e-03  -7.4722403090118263e-03 -2.0861358649573343e-02 1.8216458120322435e-03  -7.5210277875186341e-03 -1.8188435268789060e-02 1.2436111475227953e-03  -7.6426138026930487e-03 -1.5345755311334724e-02 6.2302726557862784e-04  -7.8301828335706168e-03 -1.2326582821143286e-02 -3.7920642463258540e-05  -2.2644510031499396e-02 -2.0349467969658339e-02 1.2733702924052855e-02  -2.2383650070561888e-02 -2.2824240953747611e-02 5.2337070252080333e-03  -2.1450718603234799e-02 -2.1312325276696846e-02 1.0644720527154313e-02  -2.3153253276095704e-02 -1.9367855793373693e-02 1.0910946377016265e-02  -2.4143276384200718e-02 -2.0486321738501418e-02 5.1392538820598356e-03  -2.4300015431787649e-02 -1.8771687391404644e-02 1.3019536758352676e-02  -2.5169621802935440e-02 -1.7934361098206716e-02 4.9345909460219569e-03  -2.5443930513570582e-02 -1.6147523655997323e-02 1.3285093549839743e-02  -2.4158810223401883e-02 -1.6778590103881542e-02 1.1151622579996585e-02  -2.6219964251501568e-02 -1.5339207705102621e-02 4.6798533308754602e-03  -2.6582198653957893e-02 -1.3606948987941082e-02 1.3439787404016957e-02  -2.5213675699765101e-02 -1.4154218077598391e-02 1.1305118491518950e-02  -2.7271596436911832e-02 -1.2645411927899610e-02 4.3470886968312731e-03  -2.7723504255685604e-02 -1.0960291014113626e-02 1.3459589006976079e-02  -2.6269377942078502e-02 -1.1452948772133114e-02 1.1333648676809582e-02  -2.8300864130104995e-02 -9.8086306732659539e-03 3.9363736371847893e-03  -2.8891212628640129e-02 -8.1210809444461404e-03 1.3337349904583438e-02  -2.7311324678605420e-02 -8.5939933181916686e-03 1.1251363487737420e-02  -2.9273669485902220e-02 -6.7851590224739886e-03 3.4328209737861828e-03  -3.0107231714650379e-02 -5.0097322629027094e-03 1.3106989236629462e-02  -2.8317946342652105e-02 -5.5081023820480182e-03 1.1059958167117597e-02  -2.3021620383487769e-02 -1.8196966410691268e-02 1.8306140770675036e-02  -2.1756871171810441e-02 -1.8615196754858673e-02 1.9005242513841357e-02  -2.3221160002458774e-02 -1.7926778633371231e-02 1.9945519718206243e-02  -2.4247465769584257e-02 -1.8008035017199983e-02 1.9215508378470920e-02  -2.4465723808731455e-02 -1.5732521081065431e-02 2.0778719698781287e-02  -2.5716170739633313e-02 -1.5811538910014036e-02 2.0053798753919737e-02  -2.5549411512917907e-02 -1.3443624864539296e-02 2.1384474611269598e-02  -2.6858657496211406e-02 -1.3499860100803037e-02 2.0630603683709062e-02  -2.6680289336204678e-02 -1.1088813022559915e-02 2.1743910624839973e-02  -1.5757203546750160e-02 -2.6459472178635954e-02 -9.3053832817708399e-04  -1.6377115421695034e-02 -2.3813146243424062e-02 -1.2609049724389700e-03  -1.6955979070980429e-02 -2.1436891561599281e-02 -1.6343611780902092e-03  -1.7546112241057791e-02 -1.8969032070695238e-02 -2.0173954891326089e-03  -1.8154677515967353e-02 -1.6414244888177467e-02 -2.4099594626599413e-03  -1.8785576499796883e-02 -1.3754719374360121e-02 -2.8087108221569756e-03  -1.9459759645638303e-02 -1.0966185662271231e-02 -3.2111329305528078e-03  -1.4223297479924898e-02 -2.1192082447250415e-02 2.0322065641616843e-02  -1.4134736297380298e-02 -1.9903841670107898e-02 2.1337554254556818e-02  -1.4658595782835562e-02 -1.7150428272109570e-02 2.2238377758783606e-02  -1.5209246256169666e-02 -1.4542777473925803e-02 2.2967700344047440e-02  -1.5794036892227584e-02 -1.1884465249718921e-02 2.3546640740160555e-02  -1.6457202017819854e-02 -9.0620829169761538e-03 2.4010020578322577e-02  -1.7324553978294934e-02 -5.9726074194794577e-03 2.4425455655012449e-02  -1.4293510702179284e-02 -1.9457198763437867e-02 2.6570467011039069e-02  -1.4245905817813230e-02 -1.9503551452770808e-02 2.7924930991841894e-02  -1.4440595516934853e-02 -1.7463593126531549e-02 2.9251381020478567e-02  -1.5032472217072103e-02 -1.5215313964670596e-02 3.0289547774928326e-02  -1.5654596972387670e-02 -1.2937744493165896e-02 3.1061558134554527e-02  -1.6352061531855429e-02 -1.0468320700493540e-02 3.1643866762000095e-02  -1.7245124203345896e-02 -7.6520300074109484e-03 3.2112754511811607e-02  -1.2926289301572857e-02 7.7516279878457944e-03 4.4129313186399691e-02  -1.3233519128011685e-02 3.3100123185933754e-03 4.3251243422718098e-02  -1.3558386955771936e-02 -5.1003852356907003e-04 4.2000367923137681e-02  -1.3863963392862220e-02 -3.8228294762543032e-03 4.0423927886022004e-02  -1.4035317629990291e-02 -6.6860017715425577e-03 3.8475206872685221e-02  -1.4130140519276893e-02 -9.1110897249475613e-03 3.6029709445706971e-02  -1.44312814258