<?xml version="1.0"?>
<VTKFile type="UnstructuredGrid"  version="0.1"  >
<UnstructuredGrid>
<Piece  NumberOfPoints="966" NumberOfCells="4169">
<Points>
<DataArray  type="Float64"  NumberOfComponents="3"  format="ascii">1.584888979483782 3.971873803048069 2.81805364813742  1.704589237651633 3.954768489740561 2.893389942584836  1.715408841158685 3.988306171441774 2.769973055781669  1.714167204545384 4.051216040728891 2.786196891033152  1.703640590982044 4.017080313249979 2.912142386588269  1.583429463856866 4.034245349245229 2.834717634993238  1.713051795102597 4.114075718146214 2.802339031270728  1.702829985391363 4.079360550549228 2.930812926266258  1.582094707263336 4.096603241440952 2.851291969631515  1.712008630220043 4.176857338584278 2.818418340494244  1.702094495581182 4.141591416487471 2.949424525139237  1.580832205226649 4.158928619491455 2.867804714065569  1.710979495598554 4.239567081180092 2.834465843035621  1.701371301387602 4.203770883452809 2.968008199909121  1.579587865525417 4.22121513459572 2.884296872488574  1.709910108931396 4.302204138890175 2.850509711557904  1.700597866968399 4.265891147974536 2.986594679845594  1.578305037920851 4.28345425226337 2.900807280331195  1.708714785254853 4.364760046885119 2.866601862397621  1.699685988150501 4.327938806256348 3.005236971467744  1.576903205957737 4.345636209256211 2.917386135441189  1.610051260649452 3.993723909842683 2.736480296799805  1.608507442698195 4.056529562666935 2.751644469554441  1.607083498132808 4.119286433882954 2.766714201987571  1.605722169216507 4.181992657076385 2.781726702148423  1.604379323569362 4.244641272009106 2.796713986484989  1.603006792448967 4.30722601386621 2.811707081494227  1.60151946712847 4.369731964529948 2.826757786004123  1.487883823741617 3.991438362627462 2.735137011493554  1.59896801152505 4.014500103405909 2.643630061910434  1.597328493620479 4.077837889312884 2.656963879786598  1.486778025031248 4.054275851949986 2.750269626210231  1.59579199570176 4.141124238016673 2.6702103877712  1.485765080631687 4.11710031452157 2.765294326631595  1.594314754638994 4.204344991982198 2.683399573411837  1.484806472907306 4.179898676817153 2.780256970691806  1.592856988828903 4.267495542969611 2.696561292263094  1.483867329472248 4.2426568060571 2.795206015175102  1.591378148584018 4.330574992751136 2.709725949349186  1.482911634197956 4.305367086603388 2.810191508453549  1.589802681118187 4.393583442990373 2.722950444496391  1.481889261958609 4.368030416768423 2.825272262561016  1.815652529613887 4.040123485273897 2.549833952118177  1.830219118856849 4.014756033932712 2.673228403006872  1.933878422109528 4.041395451381709 2.559202751773089  1.813840688858683 4.105098833455 2.562214363582861  1.829225117922233 4.078800159547035 2.688145254926487  1.935350930083875 4.106920337720289 2.57205841908016  1.828357157262635 4.142721917964458 2.702973012556971  1.812164685230456 4.169906737019103 2.574520341924132  1.936873975027073 4.172290875786557 2.584854765872153  1.827538381941847 4.206525039246869 2.71774137169168  1.810533417271928 4.234587529670053 2.586776158739096  1.938410014607018 4.237516971035232 2.597614053839131  1.826720371305151 4.270221920714594 2.73248058386132  1.808899577224037 4.299152249565325 2.599005179287428  1.93993428010679 4.302615246253986 2.610352144850293  1.825858618646273 4.333816983332292 2.747209606469115  1.807215070065758 4.363599142872465 2.611227011494644  1.941418638360313 4.367584120516048 2.623084238562385  1.824899753274564 4.397297099380144 2.761945859990996  1.805436384761011 4.427897005240951 2.623430340797329  1.942879895017105 4.432407878084915 2.635783758515561  1.699264733459368 4.036579097727432 2.548972356610576  1.776611466699632 4.060401727705872 2.424955124995062  1.774099084210437 4.126197722060902 2.435024160803549  1.697153700152976 4.100879947291604 2.560777285113002  1.771728172480778 4.191845163537267 2.445030881652202  1.695163576522087 4.165087658683881 2.572509070868648  1.769407799673954 4.257353965158649 2.454997943900445  1.693234186914792 4.229194471343273 2.584187655913971  1.767084988503971 4.322739539940159 2.464941848039612  1.691316575207125 4.293202459027811 2.595836183567308  1.764712432598664 4.388009451889936 2.474878299032413  1.689361242781477 4.357116996633323 2.607479089052191  1.76224918081621 4.453160869829701 2.484784508603936  1.68730418332641 4.420937779211975 2.619140340695258  1.904166624299965 4.064595568082007 2.425043570583483  1.905510461970631 4.131449786631325 2.434342968928914  1.906903013785497 4.198102497182004 2.443590172905312  1.908300534638569 4.264603280115675 2.452809933492286  1.909683872469098 4.330973281238476 2.46201045838266  1.91102547258364 4.397211442528839 2.471206641645906  1.912357977706011 4.463310550179576 2.480361193321706  1.248277113236035 3.86178951459642 3.119985445114589  1.35859591835641 3.810241297726341 3.227504378803362  1.368469242644364 3.873252608184924 3.103394201802525  1.366963076099991 3.933807294481928 3.129637269893069  1.35718533955191 3.867902468861187 3.260688532355684  1.247151253749164 3.922576460521371 3.148036806475126  1.356060085178281 3.925793516854323 3.293704609235938  1.246266399418996 3.983567228525668 3.175845004385399  1.365696319096853 3.994538315655345 3.15569731879864  1.355015683693276 3.983820861037792 3.326736500596369  1.24545563131641 4.044680275340624 3.203610184926541  1.364491830306842 4.055360483330857 3.181749242698185  1.353940648027667 4.04191964166705 3.359875648759298  1.244618224968093 4.105845365576585 3.231470682367763  1.363272920142736 4.11623194914598 3.207868609859281  1.352785900815581 4.100070776756887 3.393158914807764  1.24374222925132 4.167043459532734 3.259479970323971  1.361996432109255 4.177138585144013 3.234101380142903  1.351496247508665 4.158271037125498 3.426630612947131  1.24281650786888 4.228281508855781 3.287708938030203  1.360606655112033 4.238090934831253 3.260507574968944  1.337143762783316 4.053394651532681 2.402841634784249  1.435447467771159 4.04924133404646 2.433881225912299  1.446877178344084 4.059712242338498 2.343634177851262  1.44606867717453 4.125753648894785 2.351106226632063  1.434852632877606 4.114436342490313 2.443552155072265  1.337086049513616 4.119520069417485 2.411762861618568  1.445276580760816 4.191683230326772 2.358486121706064  1.434269182944316 4.179557943079671 2.453124538957178  1.33702292542285 4.185580736176581 2.420574993895596  1.444511411780807 4.257501471197759 2.365809818758746  1.433713015510472 4.244589711992027 2.462635500274253  1.336966147795883 4.251547559580705 2.429317198004498  1.443777444235969 4.323206760162543 2.3731059279707  1.433187321574049 4.309524565801402 2.472123003978642  1.336938237381 4.317404000643235 2.438034033528982  1.443081315922727 4.388807492084553 2.380408377141849  1.43270258984949 4.374365837042257 2.481619830637456  1.336978979330258 4.383140849894314 2.446766924767648  1.442415402700234 4.454315629558444 2.387776124847628  1.432236688422207 4.439129285813569 2.49120091665852  1.33710394266055 4.448757350757704 2.455602130992762  1.000546770688328 3.84764506477066 3.14137940317772  0.8748852751541625 3.794016520793638 3.238162109761256  0.9940629732317124 3.784717045320605 3.246284225959225  0.9935275290134756 3.845265280214599 3.282176815152891  0.876320200075515 3.856133357914042 3.275945235320532  1.001066053425622 3.909777002114994 3.174173325369001  0.9933031450335076 3.906227303846726 3.317754369807813  0.8779991549732228 3.918664303913189 3.313346128428837  1.001802920371206 3.972207129823464 3.206590561661405  0.9931610811347227 3.967398084976296 3.353286247724051  0.8797210200631433 3.981379120923659 3.350698387099538  1.002605973708553 4.034783170287323 3.238906857135579  0.9929946430506678 4.02863392070136 3.388951083897508  0.8814132398755257 4.044135059773509 3.388197953136205  1.003380920286756 4.097393295571203 3.271328553876294  0.992819492924473 4.08987939320625 3.424837351642176  0.8831310224942347 4.106884004497435 3.42595206905114  1.004161769934489 4.159987145546396 3.303954047132727  0.9926704755257054 4.151140235596413 3.461043857375052  0.8850148915716399 4.169578123363316 3.464083676200163  1.005043606501508 4.222534037094948 3.336914974954651  1.715030855877788 4.013212188950329 2.664659104215805  1.713267961987451 4.076810381232599 2.678634669157975  1.711634791659586 4.140294109202109 2.69252061998014  1.710063444768672 4.203688639787126 2.70634766089651  1.708505435046747 4.266996510648194 2.720143559344406  1.706910920939648 4.330221438328559 2.733932171080835  1.705193494399813 4.393356303132681 2.747756010005289  1.476283496467403 4.014364909347576 2.630442748255573  1.475273958409575 4.077962662101275 2.643066737994939  1.474334394630787 4.14152162480128 2.655584984452518  1.473439603008405 4.205029953932216 2.668038618757161  1.47256788224895 4.268477808989291 2.68047073602521  1.471698456297242 4.331859394587936 2.69292558654084  1.470794685515943 4.395172626545574 2.705467425741196  1.475092025449397 3.82959403105143 3.200234843194414  1.473274030779892 3.887590353883447 3.23170102658978  1.471703835435092 3.945751069154113 3.263042977798975  1.470214206046225 4.004008914339315 3.294401388222474  1.468718071001121 4.062320061479568 3.325817723400216  1.467140069153004 4.12065935177717 3.357328392923029  1.465386949256449 4.179007107202504 3.388971606868064  1.227962521512891 3.810464681238501 3.216811807107887  1.226484053442778 3.869481491090419 3.249420340998768  1.225299833888307 3.928761895276888 3.281803317843865  1.224208332137126 3.988206009618207 3.314175467266831  1.223085339614295 4.047725787311901 3.346670150148238  1.221903608910518 4.107288815953284 3.379332278983246  1.220627147910758 4.166873144417113 3.412200405387279  1.098951760052476 4.055454669045872 2.436105863823386  1.214908297455296 4.042816943603477 2.470645029536512  1.218903096721703 4.057608623663438 2.365601634478666  1.220800447345338 4.12532874880966 2
[...]
<PointData  Vectors="f_16"> 
<DataArray  type="Float64"  Name="f_16"  NumberOfComponents="3" format="ascii">5.1420425950870222e-02 9.0212791126622296e-02 3.9834332647083290e-02  5.0122985648328934e-02 9.0159453825201685e-02 4.0846838598175512e-02  4.9771959548849276e-02 9.1045963532023599e-02 3.9969792209614080e-02  4.9331205537789538e-02 9.1111256940649851e-02 3.9721515346930060e-02  4.9656576128997078e-02 8.9856529426869794e-02 4.1342252674879440e-02  5.0946247153578053e-02 9.0179002936469160e-02 3.9931869066112763e-02  4.8881827542551867e-02 9.0864634938652655e-02 3.9251360272999393e-02  4.9182091797444462e-02 8.9342607129364399e-02 4.1550577081450733e-02  5.0474740800107935e-02 8.9875225101016074e-02 3.9769612885270512e-02  4.8436246025448222e-02 9.0346193946875514e-02 3.8646180453517594e-02  4.8713349952948584e-02 8.8622157323026252e-02 4.1594354460099354e-02  5.0016230044190715e-02 8.9320186878760463e-02 3.9454284651390580e-02  4.8013644698259063e-02 8.9569678501234665e-02 3.7976690203926543e-02  4.8264218614625369e-02 8.7687292479664267e-02 4.1583208199315380e-02  4.9576837728172542e-02 8.8517656038729381e-02 3.9075726523973710e-02  4.7636506435682173e-02 8.8523312399072282e-02 3.7305731542892809e-02  4.7851185833940872e-02 8.6512976917783965e-02 4.1614414933822244e-02  4.9167051049282567e-02 8.7445137389026539e-02 3.8716215871881690e-02  4.7335278320197037e-02 8.7172028379088676e-02 3.6691001658939494e-02  4.7494617182605947e-02 8.5073031068559693e-02 4.1783938025372960e-02  4.8804832631115833e-02 8.6046085966271862e-02 3.8466835066488521e-02  5.0981993772754933e-02 9.0393887881409826e-02 3.9329266319685960e-02  5.0524335459448844e-02 9.0567691080694665e-02 3.8891269216399106e-02  5.0068836279236480e-02 9.0406756376104638e-02 3.8246875569910833e-02  4.9624241224999498e-02 8.9960048425442404e-02 3.7476782252301444e-02  4.9201660952866627e-02 8.9240499685035043e-02 3.6641684527418693e-02  4.8816208798309939e-02 8.8233993906687819e-02 3.5794602867289749e-02  4.8490778374557626e-02 8.6904599404181382e-02 3.4979675280158717e-02  5.2465330890233787e-02 8.9607126394458420e-02 3.8927629675544258e-02  5.0947113761620900e-02 8.9387860690008758e-02 3.8511383731696699e-02  5.0501828913494098e-02 8.9728414173341209e-02 3.7415832804214899e-02  5.1952362613840890e-02 8.9811891956818990e-02 3.8496500963739730e-02  5.0059050383863317e-02 8.9698865018053020e-02 3.6191274786140204e-02  5.1460987662747752e-02 8.9681631431579034e-02 3.7863226262334411e-02  4.9628240452723286e-02 8.9353952418951763e-02 3.4870707836074308e-02  5.0987482785473347e-02 8.9262525630724246e-02 3.7103002388693761e-02  4.9220049398523653e-02 8.8717458976597940e-02 3.3481848265789232e-02  5.0528291743458416e-02 8.8565507210395633e-02 3.6278151343259700e-02  4.8849944605271395e-02 8.7783389116610600e-02 3.2046784404278064e-02  5.0081438194222991e-02 8.7571422587741463e-02 3.5443969088884933e-02  4.8542415453141204e-02 8.6521660859464139e-02 3.0582445522271004e-02  4.9647153933589303e-02 8.6244139644436321e-02 3.4646804182691955e-02  4.8028095574014343e-02 8.8333629549422296e-02 3.8016171174261870e-02  4.8170202316980895e-02 9.0933313169192828e-02 3.9491446748215281e-02  4.6596567428322480e-02 8.9058320721143017e-02 3.8399176632982521e-02  4.7684552171061316e-02 8.8690151279316801e-02 3.6110787581386923e-02  4.7778476862763250e-02 9.1156117283448426e-02 3.8496469995772609e-02  4.6248637323747191e-02 8.9356784414152249e-02 3.6487209334072762e-02  4.7352684480742757e-02 9.1019916492362477e-02 3.7362583105832840e-02  4.7309770884703457e-02 8.8653354495109735e-02 3.4165737025171686e-02  4.5835994155007824e-02 8.9274407097822042e-02 3.4538390589575890e-02  4.6918984193236341e-02 9.0583144891985434e-02 3.6135334367908938e-02  4.6927979449917147e-02 8.8298417647000749e-02 3.2174167635086071e-02  4.5399837893995071e-02 8.8886020879583111e-02 3.2546656149029483e-02  4.6505799892365890e-02 8.9876144080276402e-02 3.4841654602586911e-02  4.6567520982690347e-02 8.7666486992749093e-02 3.0119078836946738e-02  4.4973462795467017e-02 8.8234742672584215e-02 3.0496683276951243e-02  4.6145720238334326e-02 8.8906954210237532e-02 3.3497776045163435e-02  4.6265643027455998e-02 8.6776266427364177e-02 2.7978963296781401e-02  4.4587876028217732e-02 8.7346180870675569e-02 2.8365871694838670e-02  4.5879390414023703e-02 8.7675910472682195e-02 3.2107223941901873e-02  4.6075530747725635e-02 8.5620416480118269e-02 2.5729879172426359e-02  4.4265122984268282e-02 8.6258864659095588e-02 2.6111596581397455e-02  4.9484867463450481e-02 8.7836471100085217e-02 3.7776277471700932e-02  4.8195003057594804e-02 8.3795775155546690e-02 3.6284464498954942e-02  4.7890590558875436e-02 8.4153300493332486e-02 3.3484842205664889e-02  4.9106155732894695e-02 8.8231111704857673e-02 3.5932211065643593e-02  4.7566885423522193e-02 8.4132466781373982e-02 3.0753384832166872e-02  4.8716523017544443e-02 8.8236368917729319e-02 3.4043832027763739e-02  4.7238606932431419e-02 8.3801023085695051e-02 2.8028399001466992e-02  4.8330733448403031e-02 8.7917893000976965e-02 3.2100188687395163e-02  4.6931054995647876e-02 8.3201938950996923e-02 2.5249992244108718e-02  4.7970140570522665e-02 8.7310713773806128e-02 3.0090014162338970e-02  4.6680443525159647e-02 8.2356149998297254e-02 2.2354282373510469e-02  4.7664153021519058e-02 8.6422859268086405e-02 2.7997972385944501e-02  4.6542027080205238e-02 8.1262926842890687e-02 1.9262016543342794e-02  4.7457538618853337e-02 8.5242256267712535e-02 2.5809064888696026e-02  4.6542497771720308e-02 8.4221068428586565e-02 3.6359995222862658e-02  4.6264899440388016e-02 8.4480393162788506e-02 3.3456017922535018e-02  4.5925550620724419e-02 8.4362436372567517e-02 3.0616877283065728e-02  4.5563621622006445e-02 8.3946218632308917e-02 2.7780765995284770e-02  4.5211289805765262e-02 8.3278353867257737e-02 2.4890763798134267e-02  4.4899014477911427e-02 8.2390569221776858e-02 2.1892930269613003e-02  4.4653938538852259e-02 8.1301790412885946e-02 1.8733771311168240e-02  5.5531968170701843e-02 8.1431991856695238e-02 3.9934387703614183e-02  5.4529614501414372e-02 7.7680434625687092e-02 4.0779643802549712e-02  5.4210503320128868e-02 8.2777655141617265e-02 4.0422961143655005e-02  5.3717133893372064e-02 8.1704235040636258e-02 4.1711738078395864e-02  5.4070455281455723e-02 7.6033862020430651e-02 4.2118643035897844e-02  5.5018169767061545e-02 8.0270422904487992e-02 4.1212499562364592e-02  5.3630104592898686e-02 7.4545301584647408e-02 4.3221318847244235e-02  5.4524520313599646e-02 7.9158777973861463e-02 4.2174214198445470e-02  5.3232204412464366e-02 8.0640762428305257e-02 4.2673039191996123e-02  5.3194481572343334e-02 7.3105289211109342e-02 4.4241849304229613e-02  5.4040971200480230e-02 7.8017870883811985e-02 4.2987400269350065e-02  5.2757483640564380e-02 7.9530700472439805e-02 4.3480158820972420e-02  5.2765045430524300e-02 7.1638775982092937e-02 4.5280701807486230e-02  5.3560951177540832e-02 7.6785818188742458e-02 4.3781336037344597e-02  5.2290047646181601e-02 7.8315252547296738e-02 4.4270743267241258e-02  5.2341526130046147e-02 7.0095124575382722e-02 4.6428602996374135e-02  5.3079867903571998e-02 7.5414206011777646e-02 4.4670365732114088e-02  5.1830133918668600e-02 7.6948846955899042e-02 4.5165889519248312e-02  5.1925240826585374e-02 6.8431602975051062e-02 4.7779575901088965e-02  5.2601697475149055e-02 7.3869269632037951e-02 4.5761390976368450e-02  5.1383359821246165e-02 7.5407024765624803e-02 4.6291532915086697e-02  5.3767300839245608e-02 8.0425080350463224e-02 3.5503078639095575e-02  5.2605620197671572e-02 8.2476757652815896e-02 3.6039868112212457e-02  5.2284165802542387e-02 7.8533469613222384e-02 3.5094152427292746e-02  5.1817982415345847e-02 7.8899409646600777e-02 3.1861260742955179e-02  5.2101860383885965e-02 8.2942440074478985e-02 3.3449810403248813e-02  5.3197500988323772e-02 8.0860906207039090e-02 3.2688017828611103e-02  5.1374830325848074e-02 7.8889531251181297e-02 2.8736341315425417e-02  5.1628236900802531e-02 8.3018009346802285e-02 3.0896653929500924e-02  5.2681618770651494e-02 8.0914015135240630e-02 2.9932307254408614e-02  5.0948315062304461e-02 7.8580715517865607e-02 2.5635191220880007e-02  5.1174175170558250e-02 8.2771151015913383e-02 2.8331661000179909e-02  5.2188714703481617e-02 8.0651328688096172e-02 2.7172599407349333e-02  5.0532604539393372e-02 7.8006863288550568e-02 2.2478896534394371e-02  5.0731092311212179e-02 8.2232625878230922e-02 2.5707200991954737e-02  5.1694921823064365e-02 8.0103594610302600e-02 2.4352226123087892e-02  5.0125218616972729e-02 7.7173857107444843e-02 1.9191624754950461e-02  5.0291611728551081e-02 8.1404331878278155e-02 2.2975147954048102e-02  5.1176560519408790e-02 7.9275200980616051e-02 2.1415610739432489e-02  4.9729209688464907e-02 7.6039522128591677e-02 1.5707108142198046e-02  4.9844751677998407e-02 8.0296977653178017e-02 2.0093450325718892e-02  5.0610980497530794e-02 7.8187547767347917e-02 1.8312895247985052e-02  5.7946974067802713e-02 7.9022166555822379e-02 3.8979332842534672e-02  5.9259123554834647e-02 7.4638740862066746e-02 3.8586292736840729e-02  5.8315931913454577e-02 7.4928082865805476e-02 3.8977232071221050e-02  5.7856973466813129e-02 7.3251179930974422e-02 4.0238882411003200e-02  5.8811418379733388e-02 7.2966299244965643e-02 3.9810517383731973e-02  5.7426079044744484e-02 7.7735180614458041e-02 4.0176233753778288e-02  5.7419737822483101e-02 7.1782768076677342e-02 4.1250927106182458e-02  5.8383998806392230e-02 7.1480363393445420e-02 4.0786853589529035e-02  5.6938451535920545e-02 7.6508774861082360e-02 4.1091044717983811e-02  5.6994793902471516e-02 7.0402303605849911e-02 4.2163041909570154e-02  5.7969856207622558e-02 7.0069699042055400e-02 4.1668600320611468e-02  5.6464886330529152e-02 7.5278109280686303e-02 4.1866464958912872e-02  5.6572077458835177e-02 6.9019236011988241e-02 4.3081771422107562e-02  5.7556142065339995e-02 6.8649236000024205e-02 4.2562985113273909e-02  5.5989656249619948e-02 7.3981764193555746e-02 4.2621601506084732e-02  5.6140715661611863e-02 6.7566607622017577e-02 4.4098437745322475e-02  5.7128980028448302e-02 6.7154162138150938e-02 4.3555228065032640e-02  5.5494962988076976e-02 7.2574456282207003e-02 4.3452081056654913e-02  5.5692933842690237e-02 6.5945571852662657e-02 4.5286391713793450e-02  5.6669265855635052e-02 6.5525294692009781e-02 4.4689482640126357e-02  5.4960254540982023e-02 7.1039124899158118e-02 4.4415466462521716e-02  4.9550815171280085e-02 9.0293692135864648e-02 3.9033408370218778e-02  4.9144805097500043e-02 9.0569341426915709e-02 3.8047366855169254e-02  4.8721711684358161e-02 9.0480419812808840e-02 3.6907801693480138e-02  4.8304035361814150e-02 9.0085288902875468e-02 3.5670861595997756e-02  4.7911319181620907e-02 8.9408440818982055e-02 3.4365032121862420e-02  4.7570037316903714e-02 8.8448975758964904e-02 3.3014497788747203e-02  4.7321086619442752e-02 8.7180534745151084e-02 3.1644103368610503e-02  5.2452241321168339e-02 8.8386736033203808e-02 3.8075932773203286e-02  5.1940980958134195e-02 8.8768269288474352e-02 3.6904621026909216e-02  5.1454003335224208e-02 8.8774781601979352e-02 3.5605404522881988e-02  5.0985927737631477e-02 8.8462344601699411e-02 3.4209558875974037e-02  5.0532096275358589e-02 8.7853787393588623e-02 3.2741113231774886e-02  5.0090470489951862e-02 8.6940644404271211e-02 3.1219834686147491e-02  4.9658172020790363e-02 8.5688248514198539e-02 2.9673390919618778e-02  5.3164836218955153e-02 7.9517381194805600e-02 4.1306406416571954e-02  5.2717592534079698e-02 7.7958901117990906e-02 4.2663204993568016e-02  5.2276418123317035e-02 7.6526744350323153e-02 4.3790917817457517e-02  5.1839348169273942e-02 7.5116355596016579e-02 4.4820679917465620e-02  5.1410677830808008e-02 7.3664239871133894e-02 4.5864147068640254e-02  5.0994634906386692e-02 7.2128403573538807e-02 4.7015211251283051e-02  5.0598372939802828e-02 7.0491678890222328e-02 4.8354004531588363e-02  5.5921864319979316e-02 7.7462011584710985e-02 4.0062177865664676e-02  5.5456275827232684e-02 7.5903804152120433e-02 4.1391567103026099e-02  5.5001782444913036e-02 7.4500319652242228e-02 4.2460354075798963e-02  5.4555107980945074e-02 7.3150169065816589e-02 4.3425190338345153e-02  5.4112282396463401e-02 7.1769392686638914e-02 4.4397645555752201e-02  5.3669807745823195e-02 7.0299344130691249e-02 4.5476026552057978e-02  5.3229870709825065e-02 6.8680198487836394e-02 4.6750430633465706e-02  5.6406027298446085e-02 7.9319964566331960e-02 3.5159836440154323e-02  5.5309514442344110e-02 8.1862893078164356e-02 3.5971324924409374e-02  5.5084598187978381e-02 7.7666655175513244e-02 3.4919924638678955e-02  5.4443559859262441e-02 7.8048843054868478e-02 3.1826397457046629e-02  5.4646055488267863e-02 8.2361336155868575e-02 3.3629434441092856e-02  5.5685161080261544e-02 7.9773905209189630e-02 3.2504938120048572e-02  5.3867509500902001e-02 7.8069315225839833e-02 2.8808757591892185e-02  5.4052161841862907e-02 8.2474653295488573e-02 3.1292380608727521e-02  5.5048559681638659e-02 7.9839120204587666e-02 2.9882532972721653e-02  5.3319030279717752e-02 7.7784482809478722e-02 2.5799251792589895e-02  5.3490363677524314e-02 8.2264238190354014e-02 2.8926600648855032e-02  5.4442248849715130e-02 7.9591430610782651e-02 2.7239405344604763e-02  5.2760372247819376e-02 7.7231166232643506e-02 2.2731662270124565e-02  5.2917067646543879e-02 8.1766906381624538e-02 2.6502149018374888e-02  5.3811037197613452e-02 7.9068772619215258e-02 2.4534336162970207e-02  5.2148269451783066e-02 7.6421161432894083e-02 1.9545000132468834e-02  5.2284094507329237e-02 8.0990684866047394e-02 2.3986892611548852e-02  5.3088468330274648e-02 7.8287931711424091e-02 2.1724426706499853e-02  5.1422347386858129e-02 7.5345326353483510e-02 1.6194113652383033e-02  5.1531337444799409e-02 7.9918862290573711e-02 2.1332706371240656e-02  5.2185195754361799e-02 7.7286736120929650e-02 1.8761844833855193e-02  5.5720279283801501e-02 7.2987934755738962e-02 4.0475678449828252e-02  5.4487800814657150e-02 7.3558687257908553e-02 4.1012212472752496e-02  5.4073181462353154e-02 7.1593086555516633e-02 4.2181426537005774e-02  5.5316850684128775e-02 7.1035038265225059e-02 4.1624581753610439e-02  5.3672324906684062e-02 6.9828814964494404e-02 4.3253686271959482e-02  5.4926641048718639e-02 6.9322493175224514e-02 4.2655542135882733e-02  5.3278261119523218e-02 6.8157246639901928e-02 4.4299975137402338e-02  5.4544938509385667e-02 6.7703328796280812e-02 4.3659032611768518e-02  5.2889700407125040e-02 6.6504144756159858e-02 4.5393198238809385e-02  5.4169085289668580e-02 6.6096254754452369e-02 4.4709364199513331e-02  5.2507141517367538e-02 6.4824044170743181e-02 4.6594598104782690e-02  5.3795340373464361e-02 6.4453623075178476e-02 4.5873912846815960e-02  5.2135330873506879e-02 6.3101792961238440e-02 4.7952397857353245e-02  5.3416199125663033e-02 6.2758154298256846e-02 4.7226581389239131e-02  5.3598488067538481e-02 7.5368657871472164e-02 3.4345177644353339e-02  5.3065988068290680e-02 7.5664331787099137e-02 3.0821153058075628e-02  5.2574849525157431e-02 7.5613029697085388e-02 2.7434950317381229e-02  5.2104776375846963e-02 7.5276637196779100e-02 2.4088152361189046e-02  5.1634164531515009e-02 7.4689390083284138e-02 2.0691065787282723e-02  5.1142680512890400e-02 7.3855687628413755e-02 1.7156254821626232e-02  5.0609308889730774e-02 7.2746609279806529e-02 1.3392309934002851e-02  5.8164495537510630e-02 7.4066760438863330e-02 3.3775447575295464e-02  5.7109694730782375e-02 7.4807467492520166e-02 3.4072758145670068e-02  5.7262189652588391e-02 6.9323947605882785e-02 3.2733899692896667e-02  5.6515132069820596e-02 6.9441127730183030e-02 2.8790506673575973e-02  5.6355943638772152e-02 7.5124889012739823e-02 3.0781474170381715e-02  5.7388299547901644e-02 7.4331970857097210e-02 3.0495349267547670e-02  5.5866330247327102e-02 6.9241069939991365e-02 2.5001955387396291e-02  5.5705424684421190e-02 7.5074127338360969e-02 2.7581837719481181e-02  5.6737259600459139e-02 7.4239194150930957e-02 2.7289156871385285e-02  5.5252182612558980e-02 6.8789182364116200e-02 2.1263401452774919e-02  5.5090460153642905e-02 7.4733432496812052e-02 2.4390474439389610e-02  5.6127444608921516e-02 7.3868684724461398e-02 2.4082888200496391e-02  5.4610231743506106e-02 6.8126820764845122e-02 1.7481453324366288e-02  5.4446836688616836e-02 7.4149370561014838e-02 2.1144619156610863e-02  5.5482400896756955e-02 7.3272523658610630e-02 2.0821402931948008e-02  5.3875057625128120e-02 6.7278182529183606e-02 1.3579690929609884e-02  5.3705514449841694e-02 7.3350765107981858e-02 1.7788601763432627e-02  5.4726366216383951e-02 7.2485268323927501e-02 1.7460302619725490e-02  5.2975343284570500e-02 6.6279431551769380e-02 9.4992918090354948e-03  5.2791364204536943e-02 7.2345097562648467e-02 1.4270091877213014e-02  5.3780429199018147e-02 7.1543038141833201e-02 1.3961689891056211e-02  5.9725423047881532e-02 8.1271757300341418e-02 3.7012566310841218e-02  5.9554309189946031e-02 8.1839816972563456e-02 3.7101661839531688e-02  5.9397147911287473e-02 8.1270377665121254e-02 3.6455409158914272e-02  5.8926433397727615e-02 8.1302568121906810e-02 3.5410776364574216e-02  5.9147062724368836e-02 8.1576162392332771e-02 3.6849652021169570e-02  5.9543447561273118e-02 8.0991377647618809e-02 3.6590049655082078e-02  5.8588245996401861e-02 8.1050577238319571e-02 3.4211953849105754e-02  5.8853175147988997e-02 8.1106670986254861e-02 3.6362433802347979e-02  5.9465821193647475e-02 8.0506907812457895e-02 3.5951046380681577e-02  5.8295369921811210e-02 8.0574029659164839e-02 3.2896105722842205e-02  5.8601262988671278e-02 8.0461335878240850e-02 3.5718082240736061e-02  5.9424514270119716e-02 7.9854006083323853e-02 3.5162427043605490e-02  5.7977042272077187e-02 7.9910486334838951e-02 3.1487590634724338e-02  5.8330899697195349e-02 7.9656084998354360e-02 3.4982396441233160e-02  5.9364529288819051e-02 7.9053732455239972e-02 3.4280374727486469e-02  5.7571149227599649e-02 7.9081781060832509e-02 2.9996006428934286e-02  5.7986310774345060e-02 7.8692250525505270e-02 3.4201319581167816e-02  5.9234469602865075e-02 7.8108819124370454e-02 3.3338822892239849e-02  5.7018602966031277e-02 7.8103396797185379e-02 2.8417509865960165e-02  5.7508194417553796e-02 7.7550613722273759e-02 3.3406832435732288e-02  5.8971098789367668e-02 7.6989695647483425e-02 3.2351824316876637e-02  4.9715858960231736e-02 8.3433843535842059e-02 3.6275726544331262e-02  4.9113502035677936e-02 7.7327011708241924e-02 3.4502522652609460e-02  4.8822138864013750e-02 7.7564966621041662e-02 3.0891714638467981e-02  4.9367264226894449e-02 8.3838596697692766e-02 3.3560724788962666e-02  4.8520126239303102e-02 7.7474205363281853e-02 2.7445569975361506e-02  4.9003589835644554e-02 8.3863160851195162e-02 3.0901462742933313e-02  4.8218405579035208e-02 7.7101381089298399e-02 2.4055665725575930e-02  4.8645359090885437e-02 8.3571261088484436e-02 2.8239855349216966e-02  4.7935654264407143e-02 7.6485416474050341e-02 2.0624008147921296e-02  4.8310625911144413e-02 8.3001733986296566e-02 2.5521118493962991e-02  4.7697757464283945e-02 7.5644763857428854e-02 1.7056335884938066e-02  4.8024964125508551e-02 8.2166656979751354e-02 2.2687409325426278e-02  4.7541571379852765e-02 7.4585998908874865e-02 1.3230938941903202e-02  4.7823740494272765e-02 8.1046085350210878e-02 1.9674031332698502e-02  5.6176490452972329e-02 6.9882288190135131e-02 3.2998705950429530e-02  5.4862966522758225e-02 7.2385383371975448e-02 3.3826327996050176e-02  5.4683525384180177e-02 6.3656533743332910e-02 3.1871667228590805e-02  5.4127293209624894e-02 6.3527945310021608e-02 2.7309517478432785e-02  5.4257691698086100e-02 7.2628758645568933e-02 3.0054313146334319e-02  5.5491509053789911e-02 7.0021142849698084e-02 2.9040368702079600e-02  5.3617130134579839e-02 6.3162151901715841e-02 2.3012361163676932e-02  5.3707358661470084e-02 7.2547784777295690e-02 2.6448795829268817e-02  5.4880386287486420e-02 6.9841462023724779e-02 2.5259874090361498e-02  5.3124687165702733e-02 6.2598494492443105e-02 1.8824091823193240e-02  5.3182290102960161e-02 7.2197699912368948e-02 2.2902173715660935e-02  5.4296625410