<?xml version="1.0"?>
<VTKFile type="UnstructuredGrid"  version="0.1"  >
<UnstructuredGrid>
<Piece  NumberOfPoints="918" NumberOfCells="3934">
<Points>
<DataArray  type="Float64"  NumberOfComponents="3"  format="ascii">2.853315633802437 2.826290491800682 4.025927262071173  2.859243205669689 2.963090850117612 3.948337263935005  2.997751248684766 2.862524970123393 4.013501019162925  2.856589821099302 2.798103826263661 3.966826001480557  2.961140698456826 2.392655354051404 4.032501287384969  2.853473374388984 2.298478566427508 4.022879558534808  2.978940329231937 2.269540462565849 4.046912819963094  2.967702013749262 2.269812303696878 4.11541644561627  2.841608770113067 2.300519733079985 4.089873920081125  2.950393597970528 2.401267495392564 4.099875119173254  2.939730116986483 2.409818136514153 4.167057807082682  2.829808414931844 2.302547865535383 4.156685994577996  2.956535543057018 2.270103658732305 4.183724321204283  2.929110365618519 2.418313819763549 4.234060115034591  2.818038121231186 2.304563083720079 4.223328320577026  2.945402354527653 2.270386652073865 4.251861720801688  2.918502860661325 2.426758683258195 4.300918374977171  2.80628675389779 2.306549087719228 4.289832718258673  2.934283687787572 2.270638699880878 4.319860804547685  2.907889098709526 2.435143007526396 4.367651618888853  2.794544981217878 2.308479012478565 4.356214437440022  2.923171106984372 2.270832607734446 4.387746095337629  2.782816568372461 2.310319626247131 4.422527572921293  2.897277108396541 2.44344604670136 4.434253152119518  2.912080363211637 2.270933768667805 4.455529525147613  2.982383347539891 2.124953806887455 4.24586774528689  2.81871534561609 2.141918244619491 4.216695598487724  2.829959610604324 2.149048881945439 4.150094179224385  2.972179177951543 2.115311789440992 4.313615796196582  2.807488694998913 2.134774637088094 4.283180283123585  2.961989040943975 2.105623545063653 4.381253964115305  2.796292723476642 2.127589121024053 4.349548573361234  2.951835493772029 2.09585046233425 4.448787407277201  2.785136820960325 2.120309502763707 4.415812340461848  2.82830041013697 2.449382676775642 4.003827331231717  2.818873177632431 2.458569246338764 4.069836014911267  2.80951813333365 2.467687602030678 4.135647172448398  2.800209141268656 2.476731330779915 4.201289254988476  2.790914378591836 2.48571796125378 4.266792017975194  2.78161258181335 2.494650675497683 4.332170292829549  2.772288600834241 2.503530960701219 4.397421605528348  2.515262962947311 2.330477931584017 3.957783915996172  2.639148990531443 2.34963560199999 3.980404129631478  2.59423320496122 2.484538165638715 3.96505392887393  2.585145226777069 2.493036806519016 4.029217861806768  2.626870223921692 2.351543185599005 4.045165645323836  2.503856516760003 2.330176819409747 4.021677383170878  2.576140361992167 2.501448710563026 4.093218016125848  2.614675207863301 2.353409045805674 4.109765816068889  2.492525558223643 2.329830994771372 4.085418041682403  2.567183661533458 2.509783972332792 4.157065636520512  2.602528960847017 2.355241964531785 4.174198638666343  2.481255559572438 2.329446202496747 4.149005597507371  2.558240244080951 2.518071218391935 4.220777657507948  2.590402688472304 2.357046901922769 4.238492490747075  2.470009651590598 2.329040020053537 4.212458863179067  2.549282077693635 2.526327466291334 4.284355242113851  2.578287480446111 2.35881854476428 4.302658573758189  2.458773353943698 2.328616043108023 4.275781016739758  2.540281879980876 2.534570768617363 4.347791855304778  2.566191193527953 2.360540162354491 4.366698447466285  2.447546478871334 2.328166454693696 4.338949009083755  1.79966335946516 1.610644184842764 3.555723774737396  1.919896758363949 1.613350101901332 3.581267469047186  1.808027181181352 1.721416207852052 3.63843455153719  1.79781140513665 1.686234596564078 3.690560490231414  1.910541393199016 1.573893820309958 3.630307671429203  1.790486064002196 1.571288311748821 3.605123937210708  1.787861144154638 1.651191815535856 3.742767371044132  1.901394517794007 1.534571194335412 3.679445160760325  1.78156530645815 1.53205539830367 3.654655157087501  1.778017148440774 1.616159383012292 3.794976779605778  1.892337479735448 1.495273367582169 3.728596863018169  2.720006682448193 2.600541447199098 3.955918301864939  2.847970902479382 2.649810131202995 3.957625653864594  2.738392837485705 2.747691437237454 3.907166651092115  2.73457794312564 2.771123793870395 3.967756552946936  2.840552176553085 2.672222132542054 4.019827585805938  2.712232718094249 2.617890925066808 4.018826510076339  2.730830208605054 2.794360189044473 4.02824591960299  2.833231035123028 2.694429882014175 4.081895712622438  2.704548260646663 2.635073916185413 4.08159654222529  2.727096049137643 2.817457837269526 4.088619680878901  2.825942565483932 2.716511651344247 4.143831189058065  2.696911670392201 2.65214422101527 4.144233089584663  2.723339728419389 2.840476500915919 4.148883696967347  2.81864092944042 2.738517229046515 4.205644226163226  2.689276939025425 2.669147927938526 4.206741065457629  2.719533681562878 2.863465452272425 4.20903312710475  2.811297984634576 2.760485271974303 4.267332082337512  2.681612221759252 2.686116936838829 4.269116795527171  2.71564285015984 2.886488699520487 4.269048174138291  2.803892793447962 2.782439575662749 4.328889012416089  2.673898453012861 2.703066510327146 4.331335466183099  1.923170317602093 2.040798577323976 3.813118757470055  2.033409124545161 2.15533466000858 3.86371107597128  1.908288632273521 2.188178162689214 3.853822515664749  1.901344018828786 2.173993577530487 3.915260909630947  2.025441656859699 2.142004559902349 3.92525723086467  1.913941344608646 2.020825852274609 3.872558305182781  1.894614453297052 2.159754270175412 3.976607762331795  2.01764140984004 2.128632569303939 3.986693631046752  1.904906303338092 2.000844995879454 3.931922170630822  1.88802263837514 2.14547060739659 4.037857616036132  2.009952782626923 2.115222733407826 4.048014945134365  1.895998632957326 1.980844971781865 3.991200857195192  1.881475036246427 2.131153219460243 4.099026377389875  2.00230253979932 2.101797030149747 4.109231656991828  1.887138351622623 1.960821259083462 4.050395626557111  1.874840159176183 2.116868583869611 4.16012192094388  1.994594957223696 2.088407688841029 4.170339737670233  1.878206540707698 1.940821012499648 4.109506593088258  1.868002536018382 2.10267278799156 4.221136782721048  1.986745151491055 2.07509990836551 4.231318382650109  1.869108372301542 1.92089526023533 4.168498703300465  2.964015648871317 1.282276774900971 3.756347474464121  2.898949461840563 1.353166241688243 3.838810781333839  3.040638875757349 1.35507485658131 3.848697580825335  2.902313762295166 1.39913869765159 3.795185126732891  3.038453441804513 1.309065675177638 3.892331038450136  2.96174004689746 1.23481901015066 3.797032608217311  2.895591573355578 1.307180695152822 3.88235891798807  3.03624702418171 1.263001913530917 3.935854952140819  2.959454042462904 1.187307497789195 3.837619383745886  2.892236598851534 1.261144182873998 3.925795602669273  2.001791847167675 2.574507023654676 3.900923133705363  1.87797819701377 2.451126193103112 3.893267137323994  2.002686629199285 2.416945232136834 3.897881935867421  1.998582933160409 2.411967350652575 3.961011305146332  1.872591949833834 2.447620598362656 3.956662018852749  1.998525150283442 2.576590911545329 3.964414053945981  1.994661471228218 2.406886739391082 4.024049789775453  1.867445860725473 2.444013330579125 4.020015515168343  1.995442539421868 2.57856124126734 4.027844675295355  1.990863333759195 2.401722131256875 4.086978823299452  1.862427172313377 2.44033313447831 4.083322462969075  1.992474420404741 2.580443058799267 4.09119423264719  1.987101214234347 2.396510575633803 4.149817197608148  1.857432584413866 2.436603060476882 4.146574127152221  1.989538498371859 2.582266405843378 4.154461469401914  1.98324945153019 2.391337689416731 4.212570797451366  1.852334479515418 2.432895829798645 4.209765933430901  1.986513194251583 2.58412433863037 4.217646463996081  1.979194686202108 2.386273502902351 4.275239523204926  1.84699769629842 2.429304481441946 4.27290571694067  1.983287096700176 2.58609030470281 4.280745246358662  2.592085449437589 2.618447327687052 3.936348819634159  2.620909771355882 2.730030226807934 3.909633683325186  2.617820181461133 2.749952498920533 3.971042433361496  2.586064942524634 2.632951757590972 3.999187957232694  2.614785709813961 2.769696203672486 4.032348225934555  2.580119894284803 2.647307063769406 4.061878363467444  2.611774611846293 2.789317028944795 4.093537077998194  2.57422469228334 2.661545153552484 4.124431353251396  2.608750422793566 2.808868060787435 4.154611193158575  2.568332341896324 2.675717219517335 4.186857221210069  2.605678175110723 2.828398338723032 4.215564132156703  2.562406757994883 2.689862777661456 4.249154445025137  2.602513404856021 2.847971539298662 4.276383735946545  2.556411928732421 2.704024945276458 4.311308531869642  2.392483590961954 2.812792469557434 3.876102857160163  2.408659984203477 2.677655358675023 3.90862904474475  2.508818054037632 2.71597403757118 3.907546563095726  2.505261484577001 2.732107778491647 3.969527062133568  2.404258388266141 2.689726383784574 3.971171232688592  2.392215585112827 2.830030643275609 3.937404138531961  2.392022772261805 2.847114419504249 3.998624674543214  2.399958479721136 2.701653417510903 4.03356932766245  2.501794563812443 2.748068721379056 4.031352151608528  2.391858999451904 2.864084372193456 4.059738126264826  2.395709469226519 2.713464989386463 4.09585584119741  2.498363379903041 2.763912093176187 4.093071759712083  2.391682009453623 2.880996091879036 4.120749346004478  2.391458479492603 2.725213891939279 4.158025909485319  2.494923096840391 2.779690157429443 4.154676225165851  2.391446993563724 2.897902611070204 4.181646946032085  2.387154538189278 2.7369512895361 4.220065381241282  2.491432639615234 2.795451306970587 4.216151073553651  2.391105522767343 2.914868067010951 4.242408441945
[...]
<PointData  Vectors="f_16"> 
<DataArray  type="Float64"  Name="f_16"  NumberOfComponents="3" format="ascii">3.4277252080778510e-02 2.2939941807745473e-02 2.6026443677234810e-02  3.3996419895577709e-02 2.8250839595733390e-02 2.8952701719706046e-02  3.2872618621838830e-02 2.2750160600997535e-02 2.5534566755261091e-02  3.3332744972405536e-02 2.5508392095554850e-02 2.5513034713658754e-02  3.0544693962230564e-02 1.7740839411956446e-02 1.8235223368989500e-02  3.0994240114877739e-02 1.7297322813776751e-02 1.7146208132242283e-02  2.9778847586045848e-02 1.5666712250587907e-02 1.5737755713259079e-02  3.0261055473436917e-02 1.4535980941424689e-02 1.5730154335721173e-02  3.1652676104419915e-02 1.6036494055201373e-02 1.7173414502278467e-02  3.1338406182063620e-02 1.6018878812279432e-02 1.8382319048132534e-02  3.1480091425903481e-02 1.4826818579746340e-02 1.8598285101383592e-02  3.1704567435550925e-02 1.4850986058983105e-02 1.7293499769686027e-02  3.0375481207209336e-02 1.3386010889058641e-02 1.5862940429220866e-02  3.1646015990763325e-02 1.3643253241084953e-02 1.8864116808961499e-02  3.1818445117533657e-02 1.3659553393425335e-02 1.7436713995810586e-02  3.0470967299181934e-02 1.2215403735538335e-02 1.5994220586909452e-02  3.1798788212786998e-02 1.2420571265574243e-02 1.9171559890254593e-02  3.1901224748591521e-02 1.2441229662421421e-02 1.7610834062924109e-02  3.0550166494867911e-02 1.1032112020393144e-02 1.6171394958924740e-02  3.1965067690322931e-02 1.1196394609928708e-02 1.9504722486937943e-02  3.1996858470435416e-02 1.1214671249982405e-02 1.7823278958392707e-02  3.0623157731491345e-02 9.8191393993415071e-03 1.6381889443016315e-02  3.2147041662948739e-02 1.0016823318034601e-02 1.8068370041596588e-02  3.2170788047137459e-02 1.0038302174741349e-02 1.9860113072242232e-02  3.0743668235444756e-02 8.6231076949466311e-03 1.6613335152762157e-02  2.9158264934833748e-02 1.1254296073564114e-02 1.2678502343324556e-02  3.0740644199330539e-02 1.2613262811421338e-02 1.3827716036262658e-02  3.0772076072359131e-02 1.3766276299746281e-02 1.3868060316892425e-02  2.9115449828707993e-02 1.0164065493268410e-02 1.2733262008448177e-02  3.0720571982596818e-02 1.1483756970282206e-02 1.3863304639039124e-02  2.9089791440549878e-02 9.0288540377140899e-03 1.2836262203675031e-02  3.0693537874735864e-02 1.0293796427745680e-02 1.3944016726329283e-02  2.9071190792639742e-02 7.8055121360886773e-03 1.2946812156212965e-02  3.0724995559595666e-02 9.0586471459551069e-03 1.4054841928786825e-02  3.1955769514887135e-02 2.0090036862009986e-02 2.0259542277107231e-02  3.2740192993576313e-02 1.8049929642717122e-02 2.0422129302764418e-02  3.3007453598673860e-02 1.6809179815197729e-02 2.0632349876855884e-02  3.3162339638664537e-02 1.5543892828894330e-02 2.0857318506785499e-02  3.3318013558408494e-02 1.4260721416600446e-02 2.1131230128735929e-02  3.3497725017415853e-02 1.3004874921673466e-02 2.1437085900853792e-02  3.3754248945340549e-02 1.1817284793075247e-02 2.1779753855058859e-02  3.4678185800096004e-02 2.1043197304589263e-02 1.9904795955247780e-02  3.3370249337875309e-02 2.0177016327801313e-02 1.9608020799939240e-02  3.4692078953606646e-02 2.2880617390359556e-02 2.2668086902321208e-02  3.5307503866394002e-02 2.0933272149215865e-02 2.2836077125480189e-02  3.4157857910149178e-02 1.8728205859177848e-02 1.9628255550194863e-02  3.5424491061984427e-02 1.9736416045599132e-02 1.9867841731248930e-02  3.5558836262820387e-02 1.9543298100647123e-02 2.3030990028565092e-02  3.4152187395377877e-02 1.7497055183142707e-02 1.9720100130258756e-02  3.5328280029861721e-02 1.8487238128066366e-02 1.9899827462174689e-02  3.5629133660126065e-02 1.8285071844250052e-02 2.3237852502303213e-02  3.4224349215124669e-02 1.6254794455997590e-02 1.9830219578826330e-02  3.5342396175624534e-02 1.7223647918110197e-02 1.9940997392554324e-02  3.5746973795831680e-02 1.6991488207277930e-02 2.3471934723611192e-02  3.4290463039031875e-02 1.4992682066961343e-02 1.9969650680783133e-02  3.5361358621840193e-02 1.5948106638447489e-02 2.0007156829919562e-02  3.5920275311561188e-02 1.5710728968743044e-02 2.3735524180705889e-02  3.4390559401921636e-02 1.3738891627297835e-02 2.0139674880628594e-02  3.5415354427938653e-02 1.4676479836134085e-02 2.0103507480059169e-02  3.6182713346659762e-02 1.4500124808331851e-02 2.4031543818160677e-02  3.4567198501563305e-02 1.2525717605624055e-02 2.0337235825330306e-02  3.5550090756046579e-02 1.3428475772239549e-02 2.0232639104330707e-02  4.0632988585217994e-02 1.1890872178660495e-02 -1.2206494811629054e-03  3.8772361072773327e-02 9.6781471926172900e-03 4.3718304840668866e-05  4.1230456835171299e-02 1.5011750696499682e-02 1.6701998716441792e-03  3.9699975435080616e-02 1.6067964069481376e-02 7.6937478599880171e-04  3.7063286897990426e-02 1.1032745822913546e-02 -5.6011074367384609e-04  3.8877224961039708e-02 1.3010800240214676e-02 -1.9965136580741721e-03  3.8666889423596487e-02 1.6754866644444897e-02 -1.0600997559301388e-04  3.5655467482786071e-02 1.2053915276058131e-02 -1.2082399457475888e-03  3.7429638928109278e-02 1.3822723861510984e-02 -2.8047156385087963e-03  3.8178044378679915e-02 1.7030049187025057e-02 -9.3585538859093534e-04  3.4740700726617717e-02 1.2765578068712983e-02 -1.8415678816024593e-03  3.3872498537237471e-02 2.4546333291199585e-02 2.3735020039436536e-02  3.2850460349857703e-02 2.4675538387850970e-02 2.3322997774438255e-02  3.4712103866282498e-02 2.9009815359245426e-02 2.5893949057968407e-02  3.4500527576845408e-02 2.5717863465615106e-02 2.6240734289166619e-02  3.3268134287239973e-02 2.1773565324355378e-02 2.3654556303699916e-02  3.4396485390693690e-02 2.2053137285836921e-02 2.4045489033381700e-02  3.5420062312208588e-02 2.3484586100318117e-02 2.6673133370556112e-02  3.4339513973972099e-02 1.9928562941925954e-02 2.4083310285535325e-02  3.5136222849597061e-02 2.0314676129101417e-02 2.4353490596245485e-02  3.6241460001938446e-02 2.1594248701844346e-02 2.7146637365659469e-02  3.4817052536060628e-02 1.8392786652495913e-02 2.4570979908783028e-02  3.5458827732584221e-02 1.8948188522513711e-02 2.4701122125516263e-02  3.6678395099898946e-02 2.0019409014125703e-02 2.7696218456894160e-02  3.5034676029459678e-02 1.7129092079694926e-02 2.5135278391114031e-02  3.5692056913445493e-02 1.7675808376714956e-02 2.5092598529079687e-02  3.6987625841875094e-02 1.8667182164661258e-02 2.8355706583256791e-02  3.5415148427904858e-02 1.5842179165622867e-02 2.5787927828519498e-02  3.5984993188925424e-02 1.6420172297934955e-02 2.5518459366611027e-02  3.7462483899166010e-02 1.7405885545533673e-02 2.9091059337552280e-02  3.5827359895382209e-02 1.4658698279310664e-02 2.6492362753018316e-02  3.6344792409743185e-02 1.5231894762728491e-02 2.5978901088391893e-02  4.1405192058296972e-02 2.0914153965939090e-02 1.2378670045886176e-02  4.0481303756432122e-02 2.2016779256410966e-02 1.6332975475477889e-02  4.2455822043947503e-02 2.3540543150471705e-02 1.7235886799880556e-02  4.2110841226778474e-02 2.3358851031362884e-02 1.6749764966216101e-02  4.0196239155667800e-02 2.1956756687591970e-02 1.5888442927948866e-02  4.0743993918635708e-02 2.1462819605332542e-02 1.1722944814821319e-02  4.1908348800988329e-02 2.2278141911562105e-02 1.6279320088780341e-02  4.0111644333355248e-02 2.0968839391762181e-02 1.5451316551915305e-02  4.0759457341256043e-02 2.0913955417346568e-02 1.1064401564889005e-02  4.1490317917853327e-02 2.0924241719722115e-02 1.5832672899058875e-02  3.9752378262712079e-02 1.9697376515444020e-02 1.5051224342515417e-02  4.0543800605973054e-02 2.0009714761172706e-02 1.0460022231137771e-02  4.1142538184996538e-02 1.9570118707235882e-02 1.5435507995291128e-02  3.9442135854629280e-02 1.8394192847786664e-02 1.4714847254252724e-02  4.0130511992225767e-02 1.8868936505032179e-02 9.9288497822265787e-03  4.0887012697557491e-02 1.8205289189895720e-02 1.5044314710190337e-02  3.9208586624073255e-02 1.7073414708297582e-02 1.4401358143214525e-02  3.9691985612110098e-02 1.7621693207758526e-02 9.4566296708183655e-03  4.0729906436548058e-02 1.6809851167808879e-02 1.4673341363728613e-02  3.9066236913535959e-02 1.5703781803603888e-02 1.4116105307451089e-02  3.9351836047387997e-02 1.6328857982640152e-02 9.0449446654880718e-03  1.8613761411771727e-02 -6.3393268681831193e-03 1.1087033958634373e-02  2.0217417295782525e-02 5.2096520348842411e-04 8.3438329416103182e-03  1.8755175839547347e-02 -1.1750268004673068e-03 9.6102041783320200e-03  2.1113385371261149e-02 -1.7114428858891802e-03 7.2366615945614809e-03  1.8068884430466944e-02 8.6278543201003519e-04 1.1050920873853664e-02  1.7489563812299228e-02 -4.0554559542284431e-03 1.2485722863505473e-02  1.9702290697836154e-02 2.3981266897275511e-03 9.6222402241896224e-03  1.7290667034010183e-02 2.9271236728001925e-03 1.2975236529738492e-02  1.6330834658073695e-02 -1.6883878888095340e-03 1.4314166822572269e-02  1.9018728778896730e-02 4.3830124107657655e-03 1.1360841740684264e-02  4.3178205917185596e-02 2.8672021211586216e-02 2.7720990096695309e-02  4.4346346879255719e-02 2.7484047079656349e-02 2.4926532302108562e-02  4.2438019086730595e-02 2.6160399461825364e-02 2.3940143672030172e-02  4.2251945031799881e-02 2.4960476658739707e-02 2.3739463920999279e-02  4.4046198932657474e-02 2.6230053705675997e-02 2.4763920828927272e-02  4.3168055335011932e-02 2.6904680736117948e-02 2.7696700584222311e-02  4.1842423354223314e-02 2.3582020950435437e-02 2.3600495672367237e-02  4.3622383254747155e-02 2.4836868103806982e-02 2.4652665936685608e-02  4.2849350884589431e-02 2.5482547226292552e-02 2.7709563184012024e-02  4.1547681287824371e-02 2.2196840200804577e-02 2.3452092603853773e-02  4.3313598375872377e-02 2.3450300106596600e-02 2.4539024667585656e-02  4.2581609828418063e-02 2.4118366939653111e-02 2.7738376363163654e-02  4.1327811060865201e-02 2.0815738243783348e-02 2.3303429070078940e-02  4.3081873250937396e-02 2.2081977611328536e-02 2.4425951132774765e-02  4.2421134781221795e-02 2.2751942627373973e-02 2.7767485504115619e-02  4.1213872105579891e-02 1.9451114154404925e-02 2.3160717619722521e-02  4.2970976824938958e-02 2.0734573129642265e-02 2.4318923944753237e-02  4.2369089205064416e-02 2.1425142863910188e-02 2.7802697384126166e-02  4.1254133106383484e-02 1.8087272349687936e-02 2.3024795838792526e-02  4.3016763584852014e-02 1.9383288819284059e-02 2.4218657824562537e-02  4.2462244638762310e-02 2.0105924904863133e-02 2.7844353994388189e-02  3.5496585783705722e-02 2.6044074817815479e-02 2.5153269235529171e-02  3.5821623561349054e-02 2.8820731783364969e-02 2.6740836160186850e-02  3.5757105034531070e-02 2.5915806742135623e-02 2.7018115758997350e-02  3.5865109408710454e-02 2.3633109622357283e-02 2.5399801973095080e-02  3.6664147396216117e-02 2.3941074456440663e-02 2.7402913432414824e-02  3.6454250039137534e-02 2.1844427336665733e-02 2.5659570711193971e-02  3.7239593308985894e-02 2.2170002464231609e-02 2.7767534062739827e-02  3.6704900974981469e-02 2.0431152591367949e-02 2.5929227890779689e-02  3.7513380004388058e-02 2.0729394058719083e-02 2.8171345637203488e-02  3.6879597508999641e-02 1.9117545845935533e-02 2.6238406750446096e-02  3.7813342418026530e-02 1.9379798463482107e-02 2.8649537743849738e-02  3.7116732694465582e-02 1.7812116130897258e-02 2.6563387825296478e-02  3.8279109459035794e-02 1.8106645714867701e-02 2.9164647309117234e-02  3.7449336700757237e-02 1.6568809750490861e-02 2.6919660244514341e-02  3.9192372465673503e-02 3.2291998500399856e-02 3.0119257967648947e-02  3.8100354240699151e-02 2.8636360118302839e-02 2.7692949326774657e-02  3.7053412266541047e-02 2.8988983657050313e-02 2.7545489988791215e-02  3.7106447163000190e-02 2.6341781687615452e-02 2.7778039312981978e-02  3.8264364791919019e-02 2.6221625528073011e-02 2.7871830609433001e-02  3.8899270734608908e-02 2.9413799951674272e-02 3.0344215386227155e-02  3.9443224106269610e-02 2.7315745896682352e-02 3.0606346119414519e-02  3.8762159778168548e-02 2.4404208611195518e-02 2.8071532462405589e-02  3.7820851255431394e-02 2.4420435850928797e-02 2.8047118267508615e-02  3.9960535506571734e-02 2.5516714319171217e-02 3.0861435840780799e-02  3.8951399453761887e-02 2.2891194011686131e-02 2.8279715616066285e-02  3.8221608454676780e-02 2.2777145081016560e-02 2.8323729370711880e-02  4.0206929690711386e-02 2.3990797105881659e-02 3.1126699336192186e-02  3.9036388974904045e-02 2.1550193685252815e-02 2.8506070547514382e-02  3.8414495994875508e-02 2.1394153338159600e-02 2.8621855465160540e-02  4.0397370440699361e-02 2.2615853691441395e-02 3.1411904276366524e-02  3.9210890760977571e-02 2.0226688046309255e-02 2.8749093972170764e-02  3.8664554288325423e-02 2.0054959820701650e-02 2.8941707401446845e-02  4.0734534768620455e-02 2.1253438113784062e-02 3.1702322593048463e-02  3.9505314433946670e-02 1.8961034282988221e-02 2.9013655125855513e-02  3.9028647432473688e-02 1.8770513141027775e-02 2.9282840241351433e-02  3.3377998713780561e-02 1.8823162324624814e-02 2.3230935657943014e-02  3.2298046059168903e-02 2.0866205378551418e-02 2.2796130671327020e-02  3.4061051923586952e-02 2.0427773240395807e-02 2.6398498379894258e-02  3.3917844341483247e-02 1.7270215828459334e-02 2.3828989397654168e-02  3.5252314191308573e-02 2.0876167585524422e-02 2.6653949044290602e-02  3.4714803641243484e-02 1.8394445063747419e-02 2.7446000014094432e-02  3.4187799313540122e-02 1.5904025257137595e-02 2.4568666959998646e-02  3.5792159390754905e-02 1.9169873921737898e-02 2.7450763020066334e-02  3.5042980982053003e-02 1.6752659519314681e-02 2.8693697446862999e-02  3.4518898828069911e-02 1.4600459429159598e-02 2.5397527488398474e-02  3.6076963990851550e-02 1.7781212401077332e-02 2.8392892808655330e-02  3.5395648319701531e-02 1.5433645793106254e-02 3.0129442118598426e-02  3.4934640934469220e-02 1.3425090897581975e-02 2.6305105418513611e-02  3.6546145821946638e-02 1.6480587441008950e-02 2.9446539056965607e-02  3.8284153037323312e-02 5.9244891768906608e-03 -2.0235015474153314e-03  3.6850498942681720e-02 5.0453509929752546e-03 -2.3633214590012514e-04  3.5066539700789545e-02 6.5616512334093517e-03 -5.5013225419903525e-04  3.6379942077431351e-02 7.1349089912612264e-03 -2.4709596074933512e-03  3.3450915430030065e-02 7.8070228397134752e-03 -9.7166239329217821e-04  3.4634988467824125e-02 8.1855527840865930e-03 -3.0211962478555727e-03  3.2162581616331155e-02 8.7742922668773184e-03 -1.4350015567386909e-03  3.3156218430391113e-02 9.0216504578628197e-03 -3.6179831173061244e-03  3.1276059243933001e-02 9.5845572143156109e-03 -1.8474568324245580e-03  3.1961534225907827e-02 9.7169279560694495e-03 -4.1965372795400042e-03  3.4149026434920814e-02 1.3345831723720588e-02 -2.3902303582191324e-03  3.0876615584562669e-02 1.0604240874708234e-02 -4.6246512094140291e-03  3.0469606490748102e-02 1.0583762161210920e-02 -2.0847370476190724e-03  3.3557182033872951e-02 1.4077363237437007e-02 -2.7285874766383826e-03  2.9826155222168974e-02 1.1746247231156956e-02 -4.8710203739711268e-03  2.9606963639765990e-02 1.1782053283303937e-02 -2.1079795188307451e-03  3.2905923948733144e-02 1.4923371007359873e-02 -2.8483534564129310e-03  3.2234249598236030e-02 1.8939158883652170e-02 1.8709517919635772e-02  3.2934455935888583e-02 1.7459975155443116e-02 1.8771447072384050e-02  3.3006606563433523e-02 1.6286924311128728e-02 1.8898341368811786e-02  3.3094554332083748e-02 1.5059267380015321e-02 1.9039522665440164e-02  3.3181092010923410e-02 1.3808437747355276e-02 1.9221155703066303e-02  3.3296902579407164e-02 1.2565648648298901e-02 1.9439629576890334e-02  3.3486090359836164e-02 1.1367970189145872e-02 1.9683695604202606e-02  3.0065224919121562e-02 1.5405640136809593e-02 1.4114316897008365e-02  3.0689236763389308e-02 1.4914487261754591e-02 1.3939314879071978e-02  3.5507282376609973e-02 3.3501136185086301e-02 2.7751694794390006e-02  3.3560929274938478e-02 2.9089923641279849e-02 2.5063068347859586e-02  3.4768155537939771e-02 3.5809895203441182e-02 2.7501089207675636e-02  3.4872574978849796e-02 2.9797802061327039e-02 2.8269161919163455e-02  3.3923159378692842e-02 3.1705718941370004e-02 2.8208944161660258e-02  3.6311045950212881e-02 2.3796863665437505e-02 2.3281242361424360e-02  3.6879427505648883e-02 2.1974747286339406e-02 2.3368878839227041e-02  3.6958066583128536e-02 2.0617453981256122e-02 2.3491961849777334e-02  3.6951310056959737e-02 1.9358780755898961e-02 2.3628245709059654e-02  3.7011770453946005e-02 1.8051484358268300e-02 2.3776991643857773e-02  3.7133249466178929e-02 1.6758218623850053e-02 2.3952381573891832e-02  3.7351902882997480e-02 1.5523942499199670e-02 2.4150234345158676e-02  4.2673552293763482e-02 2.0322723907411255e-02 8.6690337662872728e-03  4.3506776082212026e-02 2.3072279200047459e-02 1.3662463949695666e-02  4.2858512976339455e-02 2.3174470235112484e-02 1.2970633078525891e-02  4.1611725889621649e-02 2.1017037034488036e-02 7.8484158869803131e-03  4.1415880710590415e-02 2.0934167646345158e-02 7.0359957053476151e-03  4.2771849943562840e-02 2.2370815241566231e-02 1.2299816070204070e-02  4.1318887254332665e-02 2.0398635449162275e-02 6.2832496345516216e-03  4.2443651740767634e-02 2.1245708045304356e-02 1.1674951671811314e-02  4.0990689373123695e-02 1.9616812577246172e-02 5.6099923565593145e-03  4.1954037894798651e-02 1.9950253601250769e-02 1.1113353643997702e-02  4.5124192424019056e-02 2.6544286685488198e-02 2.0952359532461450e-02  4.5989243509909579e-02 2.8505692714999784e-02 2.5006348580167700e-02  4.5766864138517147e-02 2.7265638258989741e-02 2.4842611498466612e-02  4.4809900807314978e-02 2.5777778469444502e-02 2.0597598049037602e-02  4.4414324274951192e-02 2.4427321607723495e-02 2.0262001779605663e-02  4.5299721391461011e-02 2.5906389155460615e-02 2.4708960157084063e-02  4.4011303119022072e-02 2.3013031238325939e-02 1.9932282013055046e-02  4.4952638541079920e-02 2.4520803445645833e-02 2.4576513687119318e-02  3.9653731370965062e-02 2.2658912179992382e-02 1.8985365706619746e-02  4.1380815769704128e-02 2.3951016995993984e-02 2.0058097743488313e-02  4.1205927655814260e-02 2.3396865708616463e-02 1.9733619245279940e-02  3.9646462169747730e-02 2.2227403960238548e-02 1.8687147489039758e-02  3.9446577479660190e-02 2.1120756513491133e-02 1.8415225524213479e-02  4.0870919429828935e-02 2.2157252977604947e-02 1.9436452898571484e-02  3.9168306145142266e-02 1.9785348786304238e-02 1.8157642490952672e-02  4.0535177217201186e-02 2.0769270050221153e-02 1.9140687988589814e-02  3.8960212507669449e-02 1.8471818962569019e-02 1.7923164091683649e-02  4.0281200843687484e-02 1.9410242098216131e-02 1.8863529817048964e-02  3.8812731566980271e-02 1.7143160427159722e-02 1.7720020564733169e-02  4.0101694566156164e-02 1.8039665886004388e-02 1.8605040574674870e-02  3.8764613623528302e-02 1.5789235534358511e-02 1.7551125179728923e-02  4.0053973179145136e-02 1.6647196391590680e-02 1.8356723952807488e-02  3.1827973776659822e-02 2.4207625061650195e-02 2.2420728717211506e-02  4.3375986746334083e-02 2.5422612995609398e-02 2.1061995811278350e-02  4.3084255905534219e-02 2.4715644814416047e-02 2.0723133745580796e-02  4.2669791085740809e-02 2.3374248404795229e-02 2.0403825752626076e-02  4.2296220494704419e-02 2.1965279637329835e-02 2.0083995648535712e-02  4.1999713567030542e-02 2.0575550400282347e-02 1.9762045244253856e-02  4.3689002582239053e-02 2.1633044197321111e-02 1.9594563159061735e-02  4.1800904380748488e-02 1.9194932964677929e-02 1.9445178683032343e-02  4.0082800173609406e-02 2.9712324202392604e-02 2.8927158432955569e-02  4.0128571590788226e-02 2.7339998078738527e-02 2.9055227347627624e-02  4.0461216602693702e-02 2.5558645867179652e-02 2.9220132941289244e-02  4.0486233050061313e-02 2.4079092418021576e-02 2.9381958891966441e-02  4.0435027614195714e-02 2.2765076023352766e-02 2.9568305281147855e-02  4.0542756102156033e-02 2.1421258763054458e-02 2.9758897548714223e-02  4.0777398800943589e-02 2.0117632514369529e-02 2.9941795165651125e-02  3.9944483186326082e-02 2.4173108314637991e-02 2.1692390558334260e-02  4.0502867411792348e-02 2.6171428770603897e-02 2.4836167569035176e-02  4.0723505210821229e-02 2.4582719594375357e-02 2.4752392632220861e-02  4.0089850220288485e-02 2.3136806391911263e-02 2.1473