<?xml version="1.0"?>
<VTKFile type="UnstructuredGrid"  version="0.1"  >
<UnstructuredGrid>
<Piece  NumberOfPoints="947" NumberOfCells="4033">
<Points>
<DataArray  type="Float64"  NumberOfComponents="3"  format="ascii">1.673765618126753 1.230583013861255 3.183299116454844  1.806625921232003 1.286514194879369 3.257684410748449  1.669401492717014 1.338317257291405 3.29055867394322  1.662402925683746 1.292543891188933 3.337504052458977  1.801017227293424 1.239854170327382 3.30387334021089  1.666499497442357 1.181058729846336 3.228565552319791  1.795681012570272 1.19317891076193 3.350173627202408  1.659558618642207 1.131412815469047 3.273959798499915  1.655752942832333 1.246706092743224 3.384635203284983  1.790470656685324 1.14644154405486 3.396574108254896  1.652735586588676 1.081640578340563 3.319500773429234  1.649243394865026 1.200773152419008 3.431907278932852  1.785263198020852 1.099648221961123 3.443051269774795  1.64589130442134 1.031781540956966 3.365174943197604  1.642698055113796 1.154742768705411 3.479281717351436  1.638871790825146 0.9818537745834625 3.410942785990574  1.779922453017734 1.052783182679347 3.489584288467491  1.635983984168055 1.108608891277764 3.52673021501411  1.631589647914711 0.9318677420857395 3.456786438701871  1.774332927845649 1.005845739658477 3.536171505417685  1.629006274732332 1.062388413715976 3.574224726019928  3.468950506189825 0.581140988175765 2.807258238499981  3.346915821363121 0.5372907205274948 2.758713401790215  3.350535924438287 0.6201925860512225 2.918629191040643  3.340883402761118 0.5953598670357796 2.734980830220038  2.464427290307366 0.8845452242668055 2.759574170687529  2.496057106027939 0.8262040975745502 2.609958187827789  2.601195931624277 0.863141283852741 2.696746740632916  2.602840506098508 0.8001076333739294 2.724954297400782  2.493622531639394 0.7584985289477879 2.631522307502063  2.464738984654654 0.821783537675475 2.789312995232091  2.604464520434309 0.7370592959129829 2.753151934670678  2.491065887017456 0.6907858146842567 2.653065774828435  2.465020264416419 0.7590122382040148 2.819037219101902  2.606057993320606 0.6740078690058939 2.781360364396897  2.488464877550912 0.6230805735027891 2.674615521817998  2.465280515275175 0.6962453577784562 2.848766937499983  2.607629246218214 0.6109630557330019 2.809597861364439  2.485862443258697 0.5553888751178118 2.696195737618513  2.465522991590057 0.6334908841587803 2.878525040531466  2.609188179432114 0.5479293832075551 2.837881060789793  2.48330037883466 0.4877131253373376 2.717822794836547  2.465749405631831 0.5707565157056538 2.908328937540154  2.610740164400102 0.484913595150725 2.866228618280916  2.480838242611549 0.4200406837713216 2.739492532440343  2.465968205041612 0.5080433739339828 2.938191709144446  3.183855021982071 0.9266916966011867 2.728975185596856  3.328980118271651 0.9521439490552337 2.762453947971372  3.239595916759268 1.002106012142572 2.869780049231171  3.242634703182631 0.9484002630190136 2.898292522677149  3.189386137089473 0.8706620167084802 2.757012037780792  3.347039831482192 0.6754069919168225 2.892629007199851  3.211446475162366 0.6468850656667584 2.869092265828673  3.254523002651907 0.7338816496550165 3.012227239516346  3.251601300209731 0.787467057677252 2.983757847202368  3.205991414791407 0.7027836448635859 2.841069620471582  3.21676944213806 0.5910254165233325 2.897124200530571  3.257389477376745 0.6803333898725057 3.040686775433139  3.249870246320647 0.9719144654305467 3.063548501623789  3.113232870433986 0.9410834753000441 3.023750263422675  3.116741623945122 1.005870016728639 3.13699799320543  3.11044995665593 0.9941347482730086 2.993869305517189  3.118677539236442 0.9537451500313532 3.167275811608131  3.252207626418506 0.9196793074367959 3.09250719334383  3.115995800234012 0.8880590243216396 3.053622931827576  3.120591502519848 0.9016425744719223 3.19754341266704  3.259076986023708 0.7631062938184803 3.179308910852404  3.124072895171965 0.7291285643152072 3.143193469611817  3.124326101511409 0.7974774250651793 3.25802353414539  3.121428741313743 0.7820841059728256 3.113344276422415  2.345956861158401 0.8495064619315805 2.650415434162905  2.354592763310556 0.8120489881632926 2.50859234572882  2.347599326058753 0.7411137446534746 2.522001958754096  2.341325491245848 0.7815777838749075 2.671215010197756  2.340473763226276 0.6701897359656723 2.535341307579788  2.336579830838619 0.7136444698881814 2.691980823935202  2.33329694089687 0.5992791067605077 2.548672152054594  2.33179736352448 0.6457107111208675 2.712748269549874  2.326127478844668 0.5283829836149809 2.562029448891714  2.327018352647986 0.5777830397781091 2.733544463798951  2.319014282640048 0.4575025271591837 2.575438312799059  2.322276475944568 0.5098669032320857 2.754383763973315  2.311999300089314 0.3866401489002713 2.588920848044914  2.317618911290827 0.4419644686780312 2.775264390596576  3.362829495366894 0.7183853534825824 3.086142320256238  2.723115178096885 0.9803927681072895 2.895117156167746  2.863514903613703 1.002446434609517 2.913766188948822  2.746451127153282 1.049929972284488 3.002604641026582  2.749587471850379 0.9967491881320438 3.036922721906016  2.867666800244322 0.948559109771599 2.946809888936306  2.727101770937189 0.925613225712965 2.929755674102609  2.752766395047187 0.9435896219656885 3.071240719007382  2.87184013248922 0.8946930488090021 2.979842579570769  2.731118870800243 0.8708407155065867 2.96438270084754  2.755946557151325 0.8904486294135141 3.105554060764085  2.876008784564569 0.8408482087728077 3.012865906043638  2.735134660449309 0.8160799525892792 2.999005309172716  2.759098239064765 0.8373267083277642 3.139867885509328  2.880147155846434 0.7870259673119198 3.045887721449827  2.739117896457469 0.7613354705847015 3.03363541773695  2.762185523798999 0.7842246367824547 3.174191348958709  2.884224983766686 0.7332312079112457 3.07892045396826  2.743034348716238 0.7066103533984569 3.068292233680432  2.765146882954334 0.7311342535008521 3.208538725204338  2.888191613949323 0.6794691418106154 3.11198407898328  2.746843686028298 0.651908409704435 3.103009675669302  3.309510379629804 0.8863836409368193 2.616154815527406  3.334688177644538 0.6534862464869524 2.711227281879887  3.096356868997941 0.976689958390987 2.840965746300022  3.100613376175173 0.9222437385216127 2.871060575868273  3.194936373316584 0.8146721391562888 2.785039328749702  3.104869132035989 0.8678389876880479 2.901138588183117  3.24564902943293 0.8947284430644704 2.926789281089172  3.200478556964971 0.7587125935941077 2.813056172949324  3.109107063827086 0.8134639479200562 2.931205030822295  3.248639770488599 0.841084093036562 2.95527783227224  3.113313945892696 0.7591206895908128 2.961263465035691  3.117469679604785 0.7048177954144019 2.991320192795811  3.121536745339806 0.6505579434954553 3.02138408283312  1.816067130200196 1.406082895708077 3.377752946785149  1.809635120893696 1.361833460464755 3.424379350179376  1.80346948276188 1.317616823290655 3.471169738326065  1.797416119459995 1.27338322232787 3.5180469956569  1.791347815932083 1.229090143764105 3.564966867482813  1.785145039345866 1.184698260041744 3.611891868997771  1.778701950444462 1.140184864415543 3.658812534444151  2.872640169517073 1.216911183461523 3.253351167909653  3.001581362380984 1.254291098760677 3.313019411802361  2.863304591131623 1.306267655617999 3.379428503428537  2.861447841211686 1.256989490944725 3.415966572781735  3.001352148538057 1.204093664926773 3.347299358635101  2.871911659669177 1.166204545710487 3.287603458439603  2.871176034950775 1.115525556181248 3.321870152659589  3.001128391907156 1.153927366377079 3.381598723539069  2.85959967544522 1.207752106794345 3.452534729661386  3.000903213370585 1.103785984023986 3.415899089235448  2.870434117622159 1.064871347496549 3.356139508662796  2.857755378213655 1.158541554491886 3.489111137738156  2.869679336899937 1.014230066004291 3.390400608506521  3.000669758104492 1.05366040820164 3.450180356280429  2.85590614621582 1.109339495396477 3.525672264792143  2.868908793709021 0.9635914363952651 3.424637213231925  3.00042197707139 1.0035322139609 3.484425885171725  2.854043605238329 1.06012841495105 3.562191159060812  2.868128419243529 0.9129392902024993 3.458831817637995  3.000158489748403 0.9533825718533484 3.518622590839017  2.852167015477542 1.010885014425284 3.598645151853124  1.522508176276703 1.214278310423969 3.238046623903276  1.513473929544668 1.164675713235117 3.283472629148349  1.504554132291245 1.114912606499497 3.329097876518894  1.495553358164893 1.065021566140639 3.37490455049004  1.486307574816989 1.015014076178417 3.420853940818179  1.476713760363399 0.9649167323660324 3.4669417974438  3.001412725514655 1.166275064619976 3.174260946872748  2.985598736318719 1.087946913813319 3.046042527471699  3.112827387255726 1.110195358181116 3.07642915338258  2.987473773058346 1.035250985693702 3.077168345020187  3.002292606628164 1.11476694897047 3.206252565109342  3.114789591951417 1.05802057711248 3.10671423296037  2.989334848212833 0.9825869921684898 3.108289640566487  3.003166757840309 1.063283910461533 3.238250048084628  2.991177890998046 0.9299479737488672 3.139406359857039  3.004030921437974 1.011823785725633 3.270247472185257  2.992994413118049 0.8773328580863894 3.170516300033023  3.004876973233251 0.9603797285506863 3.302234836379471  3.122476374307003 0.8495566650382377 3.227794342457984  2.994777274107237 0.8247381582078821 3.201617697643921  3.00569764597065 0.9089430835851633 3.334199932917025  2.996527730148041 0.7721638401118343 3.232703108696408  3.00649044017869 0.8574981935507969 3.36613293648969  3.107656943876549 1.047208052728156 2.963983748776449  3.118731330681721 0.835059896707818 3.083487631378221  2.625963093452346 1.032548785896838 2.987521747492577  2.628628705966782 0.9788849499224272 3.023419893604838  2.631329371284882 0.9252311930071382 3.059316967707101  2.634030037564149 0.87158860469632 3.095211864971495  2.636701448486388 0.8179611674628949 3.1311157
[...]
<PointData  Vectors="f_16"> 
<DataArray  type="Float64"  Name="f_16"  NumberOfComponents="3" format="ascii">3.9523063223446217e-02 6.8760789481945635e-03 -1.3468782213321328e-02  3.8495133848582844e-02 3.7956700288355842e-03 -8.2848023458322803e-03  4.0444394698124823e-02 8.7285630023365129e-03 -9.9675573484549040e-03  3.8263189789346223e-02 9.3646438865055085e-03 -1.1100005047968410e-02  3.6141016114057560e-02 4.4695406567276932e-03 -9.2221595784671949e-03  3.7094308020803241e-02 7.7121160118773660e-03 -1.4742747447025651e-02  3.3953494702940554e-02 5.2114496902716341e-03 -1.0030424562274199e-02  3.4831651816690325e-02 8.5424843974931906e-03 -1.5732750618963620e-02  3.6231484611342443e-02 1.0018158102433511e-02 -1.2086639855989329e-02  3.1848650146762386e-02 5.9423924500946849e-03 -1.0767125919866548e-02  3.2624608952227692e-02 9.2992865797146846e-03 -1.6563388437520813e-02  3.4272859891020781e-02 1.0642648609778314e-02 -1.2969573838770992e-02  2.9754103603340420e-02 6.6156838909079497e-03 -1.1480037099593521e-02  3.0395510033674016e-02 9.9393578391920468e-03 -1.7330929194042860e-02  3.2323503353382681e-02 1.1204507911857974e-02 -1.3799125527247179e-02  2.8072561798261026e-02 1.0431350222328687e-02 -1.8133267187489532e-02  2.7604537449855374e-02 7.2177810895138516e-03 -1.2239108337370366e-02  3.0304874477365174e-02 1.1688741247299518e-02 -1.4637597431277355e-02  2.5631196337911499e-02 1.0754663891105284e-02 -1.9021196172473852e-02  2.5459668918556978e-02 7.8241669817714996e-03 -1.3068086405699118e-02  2.8365275560733278e-02 1.2234664921321305e-02 -1.5475232973878202e-02  1.4252551044373151e-02 -5.0177072836927392e-02 3.3097013352362259e-03  1.4786544637563338e-02 -4.5725851225022811e-02 -1.0354832155154463e-04  1.3872069402260658e-02 -4.9165128823527755e-02 6.0193560193385464e-03  1.6509575586551910e-02 -4.5592135808163146e-02 1.8265891725195015e-03  3.0522151169940184e-02 -2.2978022459118161e-02 -6.0175595204126639e-03  3.0371797587410113e-02 -2.4192665331229178e-02 -1.0113560294325448e-02  2.9751266452823621e-02 -2.7187047693478267e-02 -3.9644391747081032e-03  2.7168296625739319e-02 -2.6439553467379528e-02 -5.1502600847897657e-03  2.8083950245965099e-02 -2.2767408108385716e-02 -1.0900250710140554e-02  2.7821591344800608e-02 -2.2060461037383631e-02 -7.0611212436075457e-03  2.4757122918092317e-02 -2.5723509577580399e-02 -5.9615788928987432e-03  2.5898875298317272e-02 -2.1636017807242062e-02 -1.1389499543564748e-02  2.5305365575949017e-02 -2.1235541245214904e-02 -7.7575748726480933e-03  2.2419546916073715e-02 -2.5101111754262453e-02 -6.6171985687062135e-03  2.3755204730741438e-02 -2.0743993180211619e-02 -1.1727715407847668e-02  2.2855453657106069e-02 -2.0520859069048339e-02 -8.3165385683510278e-03  2.0077122090337449e-02 -2.4611581778480628e-02 -7.2660073029471748e-03  2.1595975852419871e-02 -2.0073974168633536e-02 -1.2024993052623219e-02  2.0390973265891038e-02 -1.9949426675078399e-02 -8.8739406453665019e-03  1.7670939489314474e-02 -2.4293386869027253e-02 -8.0080381011297108e-03  1.9376297995881933e-02 -1.9620694306106527e-02 -1.2356175721012467e-02  1.7848841352080366e-02 -1.9560490302965822e-02 -9.5190862254952192e-03  1.5155332876294664e-02 -2.4174326346683706e-02 -8.9172284420401277e-03  1.7064080978187502e-02 -1.9382448422687690e-02 -1.2779687249830784e-02  1.5178010262843206e-02 -1.9399052708493656e-02 -1.0292999446689925e-02  2.6274933641464732e-02 -4.5219474400313750e-02 1.1445190058486989e-02  2.5162536014722493e-02 -4.9995970922993488e-02 1.4751107794132450e-02  2.5848742139800162e-02 -4.9283207716010378e-02 1.5843554719099009e-02  2.3751569547947982e-02 -4.9579237786522401e-02 1.4962822048432613e-02  2.4206994557659969e-02 -4.5533057673557087e-02 9.8918995647447570e-03  1.5777631220990997e-02 -4.9452127897203976e-02 7.9115411040133164e-03  1.6252576876509529e-02 -4.4974654630465315e-02 4.7878645362116595e-03  1.5638086524542367e-02 -4.8020748782666288e-02 1.1253820732780001e-02  1.7686092438657940e-02 -4.8641715470563292e-02 1.2422556832413426e-02  1.8253343474672522e-02 -4.5166950271071718e-02 6.2343121772309700e-03  1.4188532321072181e-02 -4.4878624501614478e-02 2.9430378493015357e-03  1.3536708614117862e-02 -4.7346091339619263e-02 9.7247214703708885e-03  2.1309142327306338e-02 -4.9917657268754363e-02 1.7511075526186092e-02  2.2238037620338318e-02 -4.5635774449843555e-02 1.4212217567584109e-02  2.1769979471762568e-02 -4.4635481039421512e-02 1.6210879064436100e-02  2.4432504337759977e-02 -4.5902637543111247e-02 1.4540794172766207e-02  1.9640503948792850e-02 -4.3773298877853098e-02 1.6300879359111505e-02  1.9274127746588269e-02 -4.9273171288743610e-02 1.7301097536815708e-02  2.0085949480168040e-02 -4.5108747195807555e-02 1.3803022329214529e-02  1.7510734624600902e-02 -4.2687374724279324e-02 1.6236853819625301e-02  1.3022406777582481e-02 -4.6003291626780865e-02 1.5542460065313754e-02  1.3442687140466317e-02 -4.2448265041123527e-02 1.1405898914296423e-02  1.3089424647437823e-02 -3.9807037179636469e-02 1.5575047132314911e-02  1.5734125306629869e-02 -4.3499701300416103e-02 1.2491436570891173e-02  3.1607910770361451e-02 -1.9979016019734282e-02 -1.3084177917944004e-02  3.1851864381220479e-02 -2.1373429603494542e-02 -1.7586707764133690e-02  3.0026094741629525e-02 -1.9461426266824348e-02 -1.7612466591075508e-02  2.9289265412553903e-02 -1.8351494811505682e-02 -1.3708385175236586e-02  2.8228510090977044e-02 -1.7976669078138545e-02 -1.7416838862640352e-02  2.7075792240384911e-02 -1.7046001165876259e-02 -1.4069717363965910e-02  2.6427173821114477e-02 -1.6842517452705600e-02 -1.7102040054318157e-02  2.4896883387782395e-02 -1.6014269494697576e-02 -1.4276945804004910e-02  2.4590259882641151e-02 -1.6007926367406413e-02 -1.6738780283753325e-02  2.2698494756570767e-02 -1.5226508241930316e-02 -1.4423922880195613e-02  2.2694665204993095e-02 -1.5436624535224160e-02 -1.6379889507225458e-02  2.0435724711238210e-02 -1.4666170768979091e-02 -1.4575309864162734e-02  2.0725166849596487e-02 -1.5104040498469353e-02 -1.6064582047566750e-02  1.8063914247465711e-02 -1.4320173122381374e-02 -1.4777986417138067e-02  1.3185399189137338e-02 -5.0396221068232425e-02 1.3534048665505725e-02  2.9399546405417018e-02 -3.2168989783759393e-02 5.3441967206519286e-03  2.8522979824306741e-02 -3.7256988563389222e-02 9.0999632933062239e-03  2.9218159716664860e-02 -3.3125041696550228e-02 7.8560091678425790e-03  2.6563834248051650e-02 -3.2981111634536313e-02 7.5624708708400511e-03  2.5954878707110801e-02 -3.7355257459740845e-02 8.4573782701528825e-03  2.6680780521555696e-02 -3.2148050010781526e-02 4.5326537277735196e-03  2.4063537322140290e-02 -3.2548575349062907e-02 7.2767382420907863e-03  2.3529947487141788e-02 -3.7128308129852169e-02 7.9006701979947181e-03  2.4139008638656596e-02 -3.1839997421162246e-02 3.9015310102263521e-03  2.1644544294646677e-02 -3.1924526551384329e-02 6.9410019917905443e-03  2.1178478657055102e-02 -3.6695726258938556e-02 7.3414086210011513e-03  2.1686337112917304e-02 -3.1378498224287434e-02 3.3144698996264992e-03  1.9228956570477986e-02 -3.1178921270945254e-02 6.4877913399158365e-03  1.8828107151342591e-02 -3.6144323656737094e-02 6.6765089207170818e-03  1.9233850986008483e-02 -3.0857531217569907e-02 2.6455400370044937e-03  1.6735781271277329e-02 -3.0360906905464811e-02 5.8290838030163241e-03  1.6403505209775446e-02 -3.5541564765459756e-02 5.7813660866089488e-03  1.6695299737588667e-02 -3.0357470447628127e-02 1.7663553436218890e-03  1.4065967165730593e-02 -2.9509916653492996e-02 4.8572136684197449e-03  1.3812765034536899e-02 -3.4964592297705710e-02 4.4973316439813858e-03  1.3987830355807782e-02 -2.9957412762734698e-02 5.2294056156894538e-04  2.5241665388638750e-02 -4.6060645258631204e-02 9.7462311463093216e-03  1.8224693840972615e-02 -4.5629054396218900e-02 3.4284287959338313e-03  2.6908374396776978e-02 -4.4442657682759588e-02 1.2608126531910289e-02  2.4650400628297073e-02 -4.4726760848325282e-02 1.1607131521778351e-02  2.2197947594069959e-02 -4.5534303282622493e-02 8.6220191951768034e-03  2.2469868300445988e-02 -4.4669172693829362e-02 1.0741029849416432e-02  2.1712792840644788e-02 -4.9491469725287916e-02 1.4160945446975465e-02  2.0222838292627703e-02 -4.5380707472133699e-02 7.4574197156869939e-03  2.0334706301933257e-02 -4.4386750954539027e-02 9.8972490818512657e-03  1.9700382815860212e-02 -4.9151697179078996e-02 1.3351205175986057e-02  1.8198165785187632e-02 -4.3972789344832890e-02 8.9479385923107724e-03  1.6010921794220721e-02 -4.3502256510073667e-02 7.7542629197303444e-03  1.3710831669403295e-02 -4.3045854218042794e-02 6.1627812719813940e-03  3.9034641390219574e-02 5.9210517507814701e-03 -5.2684259611841368e-03  3.6929310485390970e-02 6.7586430270738440e-03 -5.9667818298041282e-03  3.5048613014572849e-02 7.5249469107871083e-03 -6.6905448052053795e-03  3.3309907311720073e-02 8.2221673393212940e-03 -7.4213498514581894e-03  3.1591636674980918e-02 8.8686704627869584e-03 -8.1259944266254165e-03  2.9910963238720098e-02 9.5742954424376161e-03 -8.7982589540156163e-03  2.8388327152670610e-02 1.0512363722147684e-02 -9.3742875985070341e-03  2.7086272446500460e-02 -3.3439480151351876e-02 1.0641315939768964e-02  2.5619797050309218e-02 -3.5353035159039162e-02 1.1822430275519028e-02  2.6500215335433414e-02 -2.7841153657791905e-02 8.7928509662339952e-03  2.4447301494516665e-02 -2.5922732278919804e-02 1.0269767480393963e-02  2.3490979342489678e-02 -3.3781770525371062e-02 1.3362107707469159e-02  2.4828548083512487e-02 -3.2232545785438813e-02 1.1741497946484497e-02  2.2655744252979594e-02 -3.0900035667501408e-02 1.2568115502567326e-02  2.1411391963672501e-02 -3.2136383195731193e-02 1.4570707857069308e-02  2.2407231206864886e-02 -2.4017034024908519e-02 1.1462897163289243e-02  1.9419585718883942e-02 -3.0380792559029202e-02 1.5574578198514427e-02  2.0567024461932936e-02 -2.9438953924202812e-02 1.3189488624427323e-02  2.0451223096305704e-02 -2.2090791875409015e-02 1.2458234335043950e-02  1.8484652698738373e-02 -2.7828181058422528e-02 1.3675632530234409e-02  1.7467227811822847e-02 -2.8476341902910013e-02 1.6456106826854416e-02  1.8632323035633142e-02 -2.0085439246423545e-02 1.3348742006690374e-02  1.6380843232623614e-02 -2.6016988019124609e-02 1.4083938573132195e-02  1.5504103244442303e-02 -2.6368145206897418e-02 1.7312081513136266e-02  1.6815499774773302e-02 -1.7918800626306203e-02 1.4251167249684041e-02  1.4236526187480886e-02 -2.3936121099565361e-02 1.4466169344231904e-02  1.3506038392574493e-02 -2.4003340512916398e-02 1.8239788132056380e-02  1.4974204420510742e-02 -1.5484742832399126e-02 1.5258397806878489e-02  3.9146223658158119e-02 1.2211826412598933e-02 -1.7660282124960628e-02  3.7020169351399734e-02 1.3073395004132765e-02 -1.8788519753096273e-02  3.4930870725286334e-02 1.3827378065198482e-02 -1.9719865604675729e-02  3.2801208648922379e-02 1.4439932697893777e-02 -2.0564384290789297e-02  3.0568593351558974e-02 1.4881540798278220e-02 -2.1408697848453867e-02  2.8203984102112917e-02 1.5140759259201438e-02 -2.2325134355958048e-02  2.6527275728676390e-02 -4.0070232595891153e-02 1.3359088675907559e-02  2.7327967367115968e-02 -4.1513199664772488e-02 1.3175031363374525e-02  2.6186953812705534e-02 -4.5553110343564587e-02 1.5566373795157186e-02  2.4941244413342462e-02 -4.1283246554649967e-02 1.3308099433201347e-02  2.4253823961661043e-02 -3.9301257792899599e-02 1.4263858216342898e-02  2.3942367779818813e-02 -4.5246222078860511e-02 1.5970319316824865e-02  2.2655082846275879e-02 -4.0757089425636633e-02 1.3321285159916778e-02  2.2066499529951912e-02 -3.8312621987226535e-02 1.4916335540342971e-02  2.0423343598183576e-02 -3.9996528453098687e-02 1.3210179292199607e-02  1.9925481700224519e-02 -3.7121868049897089e-02 1.5376080335089691e-02  1.8190100634073721e-02 -3.9042647850955979e-02 1.2950176087115262e-02  1.7789819232133384e-02 -3.5732013983485918e-02 1.5690796652503950e-02  1.5341447888096689e-02 -4.1374845059750760e-02 1.6000808776954929e-02  1.5903669844375117e-02 -3.7904879452701670e-02 1.2493174317740422e-02  1.5625757440814802e-02 -3.4118563094626984e-02 1.5886386131724876e-02  1.3517882036581153e-02 -3.6559504575103902e-02 1.1798764948589748e-02  1.3395362255523206e-02 -3.2213017710126593e-02 1.5988281451056633e-02  2.6708334531301205e-02 -4.5827869513956405e-02 1.4843309748429937e-02  1.7933220681519872e-02 -4.4385360656893330e-02 1.3255280523668785e-02  3.0025334219780889e-02 -2.8707280030658776e-02 4.7900032209251524e-03  2.7261176089760600e-02 -2.8487818073756659e-02 4.2887680656965846e-03  2.4671017096678280e-02 -2.8009407195247509e-02 3.8695477244841746e-03  2.2174165177537140e-02 -2.7377769670442451e-02 3.4438965076407186e-03  1.9678905202437622e-02 -2.6672052906915728e-02 2.9213945501975198e-03  1.7097870262789278e-02 -2.5957050117327324e-02 2.2003779997604349e-03  1.4338259070754261e-02 -2.5321872345026170e-02 1.1800521990645832e-03  3.2868447662890363e-02 -1.7935039212419741e-02 -1.9934598570016459e-02  3.0999003074186342e-02 -1.5917464568417215e-02 -1.9806306793943542e-02  2.9161939529764251e-02 -1.4364987575207891e-02 -1.9495851738899624e-02  2.7314699329394083e-02 -1.3178186012659880e-02 -1.9072946643169365e-02  2.5426347940991835e-02 -1.2298263215525133e-02 -1.8595747295357540e-02  2.3472524982768205e-02 -1.1684223367430338e-02 -1.8107210490008803e-02  2.1436358393412135e-02 -1.1302127202627417e-02 -1.7638151667323049e-02  1.7087559746422985e-02 -3.6453123469004811e-02 1.8209576771379625e-02  1.5029504076397082e-02 -3.4591706018423637e-02 1.8782483869814386e-02  1.2920416775596794e-02 -3.2426888413312094e-02 1.9345186886103538e-02  1.6476964384652140e-02 -3.4102411751207928e-02 1.9631891703731891e-02  3.4683605711270125e-02 -7.2242000930411348e-03 -1.6222112351167599e-02  3.3663766639132148e-02 -1.0858916022598095e-02 -1.1535203963638423e-02  3.4569914406637509e-02 -7.8102003423294085e-03 -1.0873386444517318e-02  3.1772746359697963e-02 -6.7680430097025370e-03 -1.1922982791112367e-02  3.0890977595211835e-02 -9.6895139049029411e-03 -1.2544749623831567e-02  3.2055615164106994e-02 -5.6295136674772385e-03 -1.7113578131505061e-02  2.9151637465166417e-02 -5.7439976468384385e-03 -1.2653609344579484e-02  2.8287696929936816e-02 -8.6084291340827613e-03 -1.3160523591990048e-02  2.9566766316801298e-02 -4.2997692390251948e-03 -1.7603948800074005e-02  2.6604489351475091e-02 -4.8138581381107631e-03 -1.3216829240877843e-02  2.5743736567766431e-02 -7.6740381566509051e-03 -1.3600685641921635e-02  2.7106814478329383e-02 -3.2037428401521127e-03 -1.7906904720932201e-02  2.4041204976637514e-02 -4.0279880285002834e-03 -1.3737358984789368e-02  2.3177605661577508e-02 -6.9141186977051605e-03 -1.4000253528095672e-02  2.4611652350877495e-02 -2.3365423603933407e-03 -1.8144522907187304e-02  2.1387233234356800e-02 -3.4294147951101158e-03 -1.4307846893251220e-02  2.0523172731608554e-02 -6.3563246957928305e-03 -1.4451791952915689e-02  2.2025261457892804e-02 -1.7036682128241751e-03 -1.8392498837511623e-02  1.8577952970084480e-02 -3.0592319314192828e-03 -1.4998293706917212e-02  1.7732672776198038e-02 -6.0278786737127457e-03 -1.5017335792521073e-02  1.9293869147758914e-02 -1.3243561486757315e-03 -1.8690421295169710e-02  2.9738889020265832e-02 -2.8328892606553302e-02 3.6111666519603598e-04  2.6982783628087405e-02 -2.8015263767250952e-02 -7.2211744783562870e-04  2.4417740396289491e-02 -2.7547557724845295e-02 -1.5056852463108780e-03  2.1940341017080915e-02 -2.7036041642446104e-02 -2.1847936954253644e-03  1.9458636927727781e-02 -2.6562772024349490e-02 -2.9081116947986532e-03  1.6893648864860146e-02 -2.6204328314884822e-02 -3.7937217003866670e-03  1.4175789941361231e-02 -2.6053844261461276e-02 -4.9314974997183196e-03  2.7638870284185182e-02 -2.7474586160769279e-02 8.3490554010941000e-03  2.5445782385378368e-02 -2.5933456733937071e-02 9.5136535578020029e-03  2.3320825429322591e-02 -2.4348999935762079e-02 1.0401431184792490e-02  2.1292687972690769e-02 -2.2701162139049710e-02 1.1098467542508794e-02  1.9343113518237073e-02 -2.0955610926158233e-02 1.1673348868925119e-02  1.7366251708804355e-02 -1.9036985662828489e-02 1.2210288734008878e-02  1.5353007080535344e-02 -1.6864967587211691e-02 1.2771637335039896e-02  2.7653034698279351e-02 -4.1639926472222435e-02 1.1983422731053297e-02  2.5236924068985745e-02 -4.1746512463630397e-02 1.1439095114927874e-02  2.2931150536570008e-02 -4.1525261968306394e-02 1.0924450816324580e-02  2.0680442684591124e-02 -4.1068214363433421e-02 1.0373498248350318e-02  1.8429473850555381e-02 -4.0453443750308120e-02 9.7010759428539112e-03  1.6118566696345316e-02 -3.9735488813838496e-02 8.8002775836478163e-03  1.3678786886650050e-02 -3.8954594230921749e-02 7.5192820382267980e-03  2.5397881984846861e-02 -2.8698984684603628e-02 9.2708536166443960e-03  2.4708011288841574e-02 -3.4224427078436259e-02 1.1467573004607294e-02  2.4506740677434007e-02 -2.6388698883942262e-02 8.5401557511202014e-03  2.3449618335333457e-02 -2.6490080032367809e-02 1.1008746385545521e-02  3.3376958833344683e-02 -1.1674575971328623e-02 -1.4714248189404561e-02  3.3618006298993794e-02 -1.2949661521392184e-02 -1.8736888403296945e-02  3.2495372398493219e-02 -1.4867495568796119e-02 -1.3455175372004422e-02  2.9941846273158906e-02 -1.3344814520057998e-02 -1.4225243383738661e-02  3.1401839995284994e-02 -1.0973840705826701e-02 -1.9077314632245979e-02  3.0802544041050085e-02 -1.0062990730665831e-02 -1.5531311179794827e-02  2.7503143887143453e-02 -1.2126474119514676e-02 -1.4653953324117527e-02  2.9242055259695102e-02 -9.4117133707019834e-03 -1.9163830297899781e-02  2.8339214499289309e-02 -8.7574167276535230e-03 -1.5974551421149941e-02  2.5105185240810766e-02 -1.1132163962197697e-02 -1.4923994589450757e-02  2.7091768392336475e-02 -8.1807821100331104e-03 -1.9098624930528389e-02  2.5911357871844783e-02 -7.6885281703338807e-03 -1.6249373327820487e-02  2.2678874613826179e-02 -1.0353259894106416e-02 -1.5149104005784543e-02  2.4903893644095867e-02 -7.2322821187091680e-03 -1.8958724856860756e-02  2.3451870809880440e-02 -6.8441814049870755e-03 -1.6470504338540363e-02  2.0168589110421967e-02 -9.7970486156488713e-03 -1.5397358214197651e-02  2.2638206409052022e-02 -6.5357058924544126e-03 -1.8796225434646287e-02  2.0905079406477043e-02 -6.2285002198465018e-03 -1.6708086088886034e-02  1.7533954237948353e-02 -9.4800839462842821e-03 -1.5698388734142046e-02  2.0256584493515323e-02 -6.0715231921497480e-03 -1.8639737588076175e-02  1.8223452349266929e-02 -5.8500200810345029e-03 -1.7001527251348601e-02  3.5753687195753309e-02 -3.6741744190553218e-03 -1.3842615049156218e-02  3.3006501291841600e-02 -2.5088286239629757e-03 -1.4940491969094810e-02  3.0426215372033827e-02 -1.4324847524123791e-03 -1.5663893585080042e-02  2.7902487047805912e-02 -4.9683206936455924e-04 -1.6189742653956323e-02  2.5350678666782794e-02 2.6358166362128584e-04 -1.6652096646300289e-02  2.2706680102413251e-02 8.1870425015925297e-04 -1.7144204136596255e-02  1.9919024907636470e-02 1.1390831112256994e-03 -1.7726799973414364e-02  2.9889992742482080e-02 -2.8471129183893860e-02 6.3808080060870137e-03  2.7234478868804011e-02 -2.8038815874152894e-02 6.3297340678901597e-03  2.4735195514602178e-02 -2.7365004985379429e-02 6.2274072246907026e-03  2.2318388017442920e-02 -2.6526553773256502e-02 6.0474594863312546e-03  1.9907795019544806e-02 -2.5578662419636970e-02 5.7498813768555486e-03  1.7426014963972735e-02 -2.4556566060591912e-02 5.2727192571330192e-03  1.4795689772564459e-02 -2.3474983689603809e-02 4.5248515364333846e-03  3.0257684672760559e-02 1.5460473716762171e-02 -1.8678967885482563e-02  2.7995202305532901e-02 -3.6014125803014913e-02 1.0923301592175267e-02  2.5563496240475176e-02 -3.5462236743703579e-02 1.1359596617035589e-02  2.3234857402076904e-02 -3.4675945380380470e-02 1.1624364097810732e-02  2.0965983249488701e-02 -3.3691502915662364e-02 1.1741867456969066e-02  1.8700268958124513e-02 -3.2531565934216300e-02 1.1710425198604766e-02  1.6384776221883720e-02 -3.1191233130838880e-02 1.1520340257457282e-02  1.3961102676259851e-02 -2.9637430049218164e-02 1.1150004256