<?xml version="1.0"?>
<VTKFile type="UnstructuredGrid"  version="0.1"  >
<UnstructuredGrid>
<Piece  NumberOfPoints="978" NumberOfCells="4161">
<Points>
<DataArray  type="Float64"  NumberOfComponents="3"  format="ascii">8.319643491173018 3.697186942580402 3.569799973543017  8.209755681804555 3.732754879551128 3.541608330734075  8.270531038319993 3.655607916605709 3.658887967374937  8.279966809966416 3.714032049478897 3.693263443202586  8.222105633827887 3.792418340455118 3.569103869429402  8.329425764164545 3.756137916606239 3.598389825516353  8.339177517575854 3.815096839711512 3.627265553317838  8.234380501651586 3.852145944569824 3.5968936791587  8.289359823353108 3.772407970281509 3.727930689872625  8.348944255094917 3.874170679501815 3.656298094777132  8.246670865252579 3.91199429267202 3.624826750457384  8.298751760038778 3.830823718163463 3.762719933414696  8.358768510170126 3.933412156074551 3.685376802541644  8.259078077095994 3.97200664084288 3.65279839758519  8.308199476171934 3.889355059938033 3.797554125869482  8.27173611683817 4.032219416636341 3.680717791354044  8.368694472652463 3.992920538793599 3.714434472500275  8.317750179764142 3.948104935278569 3.832372513710823  8.378862496575172 4.05275447471956 3.743389800844183  8.284705454966016 4.092837631944665 3.708578380777751  8.327469583138106 4.007184536229238 3.867117620846085  8.913205175866649 4.177015785935831 3.058568706588044  8.960366753043406 4.161118729546361 3.142909829174596  8.872919135181176 4.144844291846601 3.188011662424925  8.876974048227517 4.090964005662689 3.173590004504922  8.887972614817221 4.27563985573046 2.778454943097415  8.943545650576706 4.243084699946415 2.871261481109642  8.823619076358034 4.226636111743328 2.883700043952831  8.828154626954319 4.17570064699957 2.865540116899665  9.086977039454791 3.969380426832473 3.755913006459457  8.977741085898524 3.99654388774092 3.681728322870159  8.968600608306199 3.917172031237474 3.863032797915008  8.975082618645859 4.055403828305302 3.706572553970174  8.967493775225321 3.9745230544923 3.896843728713279  8.892628173690408 4.205789038705409 2.956705871656081  8.146856179120785 3.696657975811645 3.625773379941781  8.160639385365798 3.754930876751613 3.660324381249795  8.174296233844931 3.813180635239865 3.695121015437744  8.187931665162644 3.871474416916759 3.730064762263255  8.201638939810138 3.929849626774744 3.76505178952973  8.21553181455471 3.988333113030436 3.800013952474672  8.229765723839185 4.046979108667266 3.834898251947536  8.896527013464288 3.825852286775401 3.101628448577795  8.938308606269832 3.869509059736925 2.963256761118864  8.801977227266025 3.840976379840709 3.023592456374373  8.798755602450578 3.892653072206757 3.038368010073994  8.88087766539191 4.037455988452161 3.159121980107157  8.921685499713199 4.073544495789157 3.026540819790161  8.789471949704728 4.049060976350285 3.083166144770087  8.78635690080684 4.101746193247229 3.098185179174368  8.917504387358493 4.125136224547095 3.042525043351042  8.783133910646924 4.154796541790195 3.113227854068029  8.792762202218224 3.696396151763398 3.54146591703225  8.649744830251441 3.672964733707389 3.583513280730143  8.772640778136937 3.649472854130215 3.640855401501173  8.768990284976448 3.708087580819491 3.670532989788787  8.64860134322425 3.731883573329672 3.610532770724431  8.789870981311777 3.755710788400667 3.563911384505068  8.765571630786777 3.766629567148566 3.700487936337559  8.647636642476499 3.790828349223517 3.637857941620996  8.787171507784793 3.8150590159227 3.586636354598007  8.762273762901915 3.825185344661968 3.730576406756405  8.646770006396023 3.849861090051864 3.665334656727977  8.784572750769483 3.874499469085732 3.609501065423363  8.759004420881773 3.883812837929738 3.760690491040727  8.645934523379527 3.909033462922631 3.692846838781268  8.781995826586932 3.934074158555823 3.632392358239761  8.75567081591549 3.942537541486445 3.790745651090375  8.6450503800005 3.968396397900934 3.720303721661851  8.779361369686253 3.993824165368165 3.655209844140292  8.752145149065868 4.001352442682048 3.82066697091783  8.644018039044875 4.028006387372064 3.747621345754881  8.776556969528061 4.053774785769324 3.677840915060511  8.192452217606577 3.619956645927086 3.738570748849374  8.202833154207765 3.676026534712004 3.780728377804022  8.2131280938814 3.731965290572147 3.823087415838177  8.223404291215315 3.787899927998474 3.865529845486331  8.233734027858612 3.843899377123442 3.908008341188749  8.244190900812288 3.900034813009527 3.950495465243272  8.254813307308691 3.956398424076886 3.992953939653114  8.704216122225265 3.7139097771242 3.47690925955811  8.702904048026133 3.772792182075671 3.496871773958057  8.701752446665697 3.831796050183871 3.51714259596698  8.700691789023731 3.890957588251408 3.537560992726517  8.699660935229529 3.950308680867158 3.558008931715351  8.698591949943504 4.009886358890847 3.57837856155736  8.697421595166396 4.069721622432352 3.598557352382036  8.645507321494515 3.890054223807828 2.833896071609368  8.703504692983365 3.926478746397023 2.737216955425222  8.54741901508455 3.907162251800965 2.767589484694996  8.642897982633635 3.940682711941303 2.850276829734281  8.699752227741014 3.97686158163255 2.754762765166923  8.545346445110837 3.958421845110029 2.783376802012124  8.543358656859057 4.009931871893698 2.799130168393453  8.696094698030722 4.027489880064721 2.772246150982338  8.640374889413634 3.991607245492688 2.866683445457233  8.541414152917351 4.061720881216752 2.814926857845337  8.692463804676892 4.0783557654534 2.78976822223495  8.637882360016977 4.042779658946714 2.883131168861514  8.539464611417213 4.113783656772204 2.830831514211695  8.688817074205929 4.129450454608144 2.80739173885484  8.63539258684435 4.094221648588507 2.899664910417975  8.53746454070972 4.16613529995451 2.846899418579576  8.685103283464601 4.180772894767726 2.825191372646821  8.632861842035695 4.145967448748226 2.916340125174083  8.535363461800378 4.218779369874963 2.863197715476147  8.681273381289442 4.232320240054051 2.84328382523663  8.630219968111104 4.198101586165339 2.933269123136095  8.250236339754766 3.842448553084338 3.098512530096466  8.201854686704827 3.865531508799678 3.010230893182188  8.156792330062045 3.852510585632493 3.141619658163875  8.170038410439728 3.90976613473241 3.15200621492904  8.211085970337809 3.921022791536321 3.019991851769271  8.258965938832581 3.898370741094769 3.110017756952692  8.183148041244173 3.967278400747528 3.162643882038809  8.220211746683251 3.976767914619356 3.029942466370115  8.267607386536083 3.954556370766664 3.121742910132826  8.196331787259741 4.025097028581134 3.173354731592234  8.229388138603584 4.03280911240632 3.039972704457743  8.276325695511034 4.011030161651362 3.133528481548479  8.209676956327613 4.083213922305274 3.184054200681956  8.238713994576999 4.089164436180187 3.049999900466438  8.285203937457544 4.067822149602925 3.145303063118238  8.223306777504424 4.141639186773681 3.194668780525185  8.248289380775345 4.145865983545948 3.0599759540262  8.294343260168596 4.124967891518275 3.156999318845513  8.237443383260455 4.200349874887842 3.205076254559073  8.258262983508299 4.202987418994402 3.069818734707637  8.303866701237535 4.182608057225996 3.168574193183616  8.074454912253051 3.669681685058384 3.696799090824312  8.090162004287937 3.726703573630894 3.736932750052444  8.105678957843793 3.783661350281219 3.777259207558901  8.121134749618372 3.840614196370445 3.817691409274783  8.136634098866072 3.897604347296144 3.858154173037596  8.152325059141107 3.954653477305579 3.898575302310462  8.168404468128054 4.011872412753982 3.938950710960126  8.91969193935979 3.903739148817139 2.853349498971146  8.850000488309339 3.924430951421513 2.77700045749684  8.83591559299548 3.875924852783353 2.917566754690413  8.832161926925526 3.926352244103224 2.933667442111328  8.813725757204644 4.182173485071072 3.0151302116418  8.076357174882535 3.887786713823428 3.048361430753219  8.090186724526438 3.944884969503273 3.056655475797461  8.103876002510457 4.002334496219481 3.065198703935767  8.117617199347418 4.06005459451498 3.073808239872693  8.131532306653339 4.118065896138431 3.082391088707706  8.14575624751002 4.176389131965327 3.090872361238358  8.160486813763159 4.23502359315848 3.099157185982016  9.003056694475823 3.569947517023636 3.791386873810843  8.974074714784079 3.63017503845702 3.693390042021607  8.885083600362723 3.563630430213043 3.795366095478767  8.882681370729099 3.616719741218734 3.839688836318679  9.002877628025686 3.891997510826955 4.049165336580164  8.871779663555662 3.880505302745985 4.061663143415424  8.874058236506931 3.827794779789523 4.017363782190896  8.10403195602003 3.776990064027274 3.498666722735199  8.123255032006261 3.836728585210654 3.523498150265912  8.142288002854412 3.896601144382763 3.548628045647048  8.161289558707137 3.956617083363754 3.573903112355919  8.180391133382049 4.016795022547936 3.599203274077616  8.199742947429327 4.077149386103357 3.624421071642238  8.219678349712442 4.137617519492793 3.649454829742817  8.746395429579321 3.890542382414808 2.85125740979777  8.742915876485345 3.940836592972944 2.867752418262612  8.845558936027526 3.974246134588466 2.794653993755094  8.828488394984484 3.97702182795335 2.949809705238122  8.739526901605924 3.991432538205714 2.884264799692522  8.841212600020709 4.024305650680372 2.812261683004634  8.824858430285433 4.027933460796423 2.966012486417316  8.736181182600307 4.042271117617888 2.900831261683709  8.836894168489238 4.074569616046895 2.829906045595228  8.821222460450592 4.07908275470528 2.982288292506203  8.732824628572541 4.093353830165119 2.917483623776817  8.832556856507283 4.125039009432236 2.847645875211998  8.817530937503598 4.130487904321829 2.998653197739202  8.729415926901499 4.144695210761133 2.934263440559665  8.725892256437756 4.196309956511916 2.951229292540231  8.749620169674962 3.592703971356865 3.746447403912979  8.661546608722553 3.506052150765874 3.836096524568
[...]
<PointData  Vectors="f_16"> 
<DataArray  type="Float64"  Name="f_16"  NumberOfComponents="3" format="ascii">-2.0373502118876632e-02 6.5540700158456408e-02 3.2368035723594722e-03  -1.8645865194222393e-02 6.8603885135492787e-02 6.6139946286166021e-03  -2.0464022831420594e-02 5.2361579922339335e-02 1.6295732405235330e-03  -2.0608716409346743e-02 4.6736370224511541e-02 6.6930128868626215e-03  -1.9205651008113639e-02 6.3857038817245637e-02 1.2842326474309546e-02  -2.0763718840741588e-02 6.0403008112314964e-02 9.4696906275101838e-03  -2.1052533359734147e-02 5.5888310508659583e-02 1.5478674227812485e-02  -1.9660634546871406e-02 5.9683757581208294e-02 1.8878083790877007e-02  -2.0671995993284918e-02 4.1896087305556377e-02 1.1701754086808232e-02  -2.1261596171759264e-02 5.1783047099718288e-02 2.1505873665492479e-02  -1.9999682243473711e-02 5.5862325017709658e-02 2.4890839015828909e-02  -2.0640380999686733e-02 3.7591375707213798e-02 1.6853673644498340e-02  -2.1378538822414455e-02 4.7934314797739505e-02 2.7760401593697717e-02  -2.0230347622161790e-02 5.2257874838085680e-02 3.1094961899579429e-02  -2.0500238779046900e-02 3.3632519560197381e-02 2.2307579343892620e-02  -2.0336737617080498e-02 4.8780626203207583e-02 3.7668443587800936e-02  -2.1402956755446494e-02 4.4233967425421926e-02 3.4450051149789586e-02  -2.0138974225564283e-02 2.9820821517195763e-02 2.8212714866402398e-02  -2.1300686043529825e-02 4.0584827927812962e-02 4.1736530513204036e-02  -2.0365838596793254e-02 4.5320499657390642e-02 4.4815816775086684e-02  -1.9629445026399409e-02 2.6134587383875987e-02 3.4694474826398161e-02  -3.6198005992744427e-02 1.4871361313788722e-01 5.1056123715543446e-02  -3.5639084950357051e-02 1.3720423893350425e-01 5.4049456088470636e-02  -3.3605450686190627e-02 1.2950294754664610e-01 5.4248714982494152e-02  -3.3196243969217887e-02 1.3362118802920536e-01 4.7597834763499824e-02  -3.9752419196785536e-02 1.7303656793162780e-01 3.5324717336367807e-02  -3.9466586028996664e-02 1.6845049213174768e-01 4.1942514332779054e-02  -3.7363642271348592e-02 1.6583389713927271e-01 4.2225289524741742e-02  -3.6664677354634585e-02 1.6902312036933623e-01 4.0945081277408105e-02  -2.8221591270396029e-02 3.5217469445530662e-02 3.0205635720632978e-02  -2.8021488678116494e-02 4.7717666288410253e-02 3.6248468394030217e-02  -2.7064185300543650e-02 2.1403931448443693e-02 2.3110719192827017e-02  -2.7195627479201324e-02 4.3424641390759737e-02 4.5143276146870262e-02  -2.6400786345362120e-02 1.7369225757203382e-02 3.0691675471442009e-02  -3.7428349861196919e-02 1.6041740253981468e-01 4.6542750333785680e-02  -1.8494255817867747e-02 5.6581801660353044e-02 5.2903675223259679e-03  -1.8834505396061407e-02 5.1129864505214492e-02 1.0411527111877540e-02  -1.9096309435870689e-02 4.6348835348872103e-02 1.5441360142623307e-02  -1.9236167011971408e-02 4.2051294299629081e-02 2.0549123533576959e-02  -1.9232890977687066e-02 3.8078146470412112e-02 2.5884504224858683e-02  -1.9031994206118039e-02 3.4296495342437970e-02 3.1576074248233089e-02  -1.8606562156129131e-02 3.0594606889609795e-02 3.7791687791895921e-02  -3.0647788689479427e-02 1.4446861781813278e-01 1.5715942610512412e-02  -3.3567710664182515e-02 1.6112428425887718e-01 2.2282530629802903e-02  -2.8338079046780578e-02 1.5247458175931700e-01 1.8683289232728842e-02  -2.9364840466767527e-02 1.5167710602267653e-01 2.4987536635391043e-02  -3.2810312846142803e-02 1.3688601237851097e-01 4.1464993726129835e-02  -3.5501258990104083e-02 1.5578886598307889e-01 4.2184254505274056e-02  -3.1756092759227549e-02 1.4639391686079326e-01 4.1072693910182638e-02  -3.2463355721819742e-02 1.4336520547791365e-01 4.6261464034328029e-02  -3.5858876883472328e-02 1.5273195363899492e-01 4.6565080254999287e-02  -3.3242996495645161e-02 1.3939774841911715e-01 5.1747907414020307e-02  -2.7383818669799328e-02 7.3247403327044713e-02 -7.2590865224890304e-04  -2.5343481952463442e-02 6.5583199979708282e-02 -1.3046696612794490e-03  -2.7523959160430170e-02 5.6500193303329782e-02 -3.9591710026969469e-03  -2.7064057637221254e-02 5.0516040760676173e-02 2.5044682454403513e-03  -2.5253323136036385e-02 6.0079318553241119e-02 5.6620645379531018e-03  -2.7227501403195332e-02 6.8278624635565707e-02 7.0866682761162912e-03  -2.6675668244947062e-02 4.5419537107807474e-02 8.7683222933476537e-03  -2.5146746974772385e-02 5.5290227564786076e-02 1.2310284441601965e-02  -2.7078224488254737e-02 6.3953301621460415e-02 1.4430860445399695e-02  -2.6282316473687582e-02 4.0901177500115668e-02 1.5078849285445178e-02  -2.5010564849716244e-02 5.0964381088892501e-02 1.8942922454585561e-02  -2.6911894153626072e-02 6.0010920908031541e-02 2.1695324621793275e-02  -2.5844905260304526e-02 3.6754020169188717e-02 2.1686760309507107e-02  -2.4837618979503998e-02 4.6928907265094522e-02 2.5826518400235050e-02  -2.6712961710207830e-02 5.6268820901923783e-02 2.9198612137689230e-02  -2.5273052362121070e-02 3.2715320341285506e-02 2.8832034582782936e-02  -2.4605503925723228e-02 4.3028325720065985e-02 3.3206669579870583e-02  -2.6474098827473848e-02 5.2572493647741442e-02 3.7221657802295700e-02  -2.4533582527580814e-02 2.8672618672357236e-02 3.6688628577200698e-02  -2.4268175089090203e-02 3.9076603410605211e-02 4.1268226100886832e-02  -2.6187323590237892e-02 4.8730294773347754e-02 4.5966124921423469e-02  -1.9941798552272860e-02 4.0914454131105435e-02 1.4943638893090009e-03  -1.9878236059596599e-02 3.4983524573252434e-02 5.1501570872572889e-03  -1.9769313836875028e-02 3.0022433187019668e-02 8.9783647275941316e-03  -1.9560885553737906e-02 2.5636324543730316e-02 1.3074822014460856e-02  -1.9071655133270048e-02 2.1554442647905892e-02 1.7527011797982241e-02  -1.8389277178389236e-02 1.7738508487640151e-02 2.2418818869299431e-02  -1.7576824983642689e-02 1.4177680974334089e-02 2.7859843297961050e-02  -2.5556633563946402e-02 8.3529234333729052e-02 1.4303060309778870e-03  -2.5767368111583800e-02 7.9230954328031636e-02 9.5270572315930974e-03  -2.5912005108143295e-02 7.5337117893577374e-02 1.7083765865992848e-02  -2.6015295183495522e-02 7.1693754190693196e-02 2.4481860416444269e-02  -2.6094968651882364e-02 6.8151948717230029e-02 3.2043517940116513e-02  -2.6174614094460449e-02 6.4589640937108103e-02 4.0052035005344419e-02  -2.6283122926433172e-02 6.0925273937555077e-02 4.8759424055093224e-02  -2.5338676921266463e-02 1.6533354997994876e-01 2.5298345104519469e-02  -2.8575572662189890e-02 1.7153936299866704e-01 2.9003218103487799e-02  -2.3339778118623072e-02 1.6587027178918806e-01 2.6677470794196335e-02  -2.6787048756925641e-02 1.6547525302636995e-01 2.9355456209804960e-02  -2.9707236786117718e-02 1.7221276485364143e-01 3.1803461131352552e-02  -2.5003346231704117e-02 1.6632479358377372e-01 2.9928769534598592e-02  -2.6596072033666391e-02 1.6631179463305287e-01 3.2472348480935574e-02  -3.1019240264432011e-02 1.7229161811011401e-01 3.3924881664467131e-02  -2.8192862255457859e-02 1.6513180416286580e-01 3.2766297593741771e-02  -2.8031018776973889e-02 1.6568661243828675e-01 3.4743504453323672e-02  -3.2172971768096373e-02 1.7168702877317032e-01 3.5740878481194810e-02  -2.9435258765736560e-02 1.6418284096709490e-01 3.5863228992637018e-02  -2.9397042686036590e-02 1.6442019954750928e-01 3.6790353361113609e-02  -3.3239537541078355e-02 1.7039025398621482e-01 3.7262818016921974e-02  -3.0602122910872467e-02 1.6258677922598991e-01 3.8733703097828504e-02  -3.0795193560446518e-02 1.6244919197381860e-01 3.8644207473411678e-02  -3.4293454086816028e-02 1.6835688089457423e-01 3.8468142318986646e-02  -3.1789423329481398e-02 1.6025326246084931e-01 4.1438114528314238e-02  -3.2340140797332814e-02 1.5968344611277260e-01 4.0312830539319472e-02  -3.5406089170183883e-02 1.6550879382310554e-01 3.9268505322396126e-02  -3.3093001283039464e-02 1.5700971653756549e-01 4.3981631344699797e-02  -1.4801650761995067e-02 1.2759691988023369e-01 1.6129167765075610e-02  -1.3542830569768547e-02 1.3513105264331848e-01 1.8687311296212563e-02  -1.4021557484616256e-02 1.1980408803270066e-01 1.6197114983769006e-02  -1.5762500223284483e-02 1.1906394506920641e-01 2.2759251367505645e-02  -1.5869935567489311e-02 1.3511518092715413e-01 2.4301682480166606e-02  -1.6712223239033409e-02 1.2687030917751571e-01 2.2498410141512271e-02  -1.7307104237994506e-02 1.1816869767036976e-01 2.8674122254079434e-02  -1.7794440288918151e-02 1.3474096663953858e-01 2.9296091931251024e-02  -1.8352778873808706e-02 1.2591845656294251e-01 2.8254238483711894e-02  -1.8671948322117118e-02 1.1706548278532805e-01 3.4310590690479148e-02  -1.9355165018438467e-02 1.3401694790270111e-01 3.3988443356976893e-02  -1.9734673907257874e-02 1.2469258697560216e-01 3.3700803474666592e-02  -2.0010354700961505e-02 1.1570220079875668e-01 3.9996287293076596e-02  -2.0859322747471251e-02 1.3291808528519614e-01 3.8676223157758455e-02  -2.1082130398607683e-02 1.2314189978294691e-01 3.9180335110570161e-02  -2.1416661217809760e-02 1.1406836323199990e-01 4.5994024941676315e-02  -2.2483206876711136e-02 1.3140720325628344e-01 4.3603774318624035e-02  -2.2516095206180840e-02 1.2124520096107927e-01 4.4947352791995548e-02  -2.2965108445212219e-02 1.1217455377031797e-01 5.2600709872496931e-02  -2.4350051124523413e-02 1.2948053267821505e-01 4.9064341227331415e-02  -2.4148406939497370e-02 1.1902146304679298e-01 5.1307634489478816e-02  -1.7886010653538603e-02 4.6609876678174643e-02 5.3390620993981211e-03  -1.8095438961833264e-02 4.0972603900259738e-02 9.3829390125428330e-03  -1.8204952502900770e-02 3.6092240966204663e-02 1.3455295771621004e-02  -1.8191980692812568e-02 3.1755033164782856e-02 1.7730390635172927e-02  -1.7963763192790229e-02 2.7746475303968527e-02 2.2311002676417148e-02  -1.7466477344107285e-02 2.3918815365762371e-02 2.7253690339656196e-02  -1.6691982454757837e-02 2.0233345113461199e-02 3.2650111824487460e-02  -3.4282259457764967e-02 1.7001580319128293e-01 2.6858792074711337e-02  -3.2835045352130700e-02 1.7314422494183476e-01 2.9096512465917240e-02  -3.0617137850517527e-02 1.6376030566022814e-01 2.3636636548247370e-02  -3.1427033781047255e-02 1.6352977452274847e-01 2.8793144370797601e-02  -3.5232548203345267e-02 1.5271243399873607e-01 4.8704722863148052e-02  -1.2417208472146236e-02 1.2705102858666550e-01 1.9443269781988237e-02  -1.4625633412131229e-02 1.2708139278300670e-01 2.5205236595481160e-02  -1.6449350464244415e-02 1.2678019551968581e-01 3.0309238622661838e-02  -1.7972341783846744e-02 1.2616684841770617e-01 3.5166566381661428e-02  -1.9482399383940856e-02 1.2522485089152713e-01 4.0091856418183289e-02  -2.1103114831611619e-02 1.2397089883434226e-01 4.5325107002359089e-02  -2.2919413889066750e-02 1.2244429892242277e-01 5.1121811462463133e-02  -3.0577649159301758e-02 3.1149579312209054e-02 -9.8709064929152889e-03  -3.0270197950181217e-02 4.7275062184882574e-02 -6.8805981706935469e-03  -2.9552958997252944e-02 3.1043422136996672e-02 -8.8459259428972266e-03  -2.8806167015058743e-02 2.4400731166024089e-02 -5.4806126855099996e-03  -2.7496519125877979e-02 2.8145903194666758e-03 1.8444858467727965e-02  -2.5908669834580549e-02 2.9187925369873135e-03 1.8284715190943473e-02  -2.6655023963606757e-02 5.9631413589890537e-03 1.2410762244340271e-02  -1.6907152231201112e-02 7.3465536574155596e-02 1.0226854187022601e-02  -1.7749844901027663e-02 6.9358928780055215e-02 1.6549837116061041e-02  -1.8423128314231634e-02 6.5712516877775851e-02 2.2609874892492773e-02  -1.8985053249477506e-02 6.2347120716564321e-02 2.8635035203591470e-02  -1.9429267246252081e-02 5.9137097625869030e-02 3.4821850634995127e-02  -1.9730348239645621e-02 5.6007468973593905e-02 4.1338665125756416e-02  -1.9823250059536578e-02 5.2937312517262608e-02 4.8292568063375785e-02  -2.8389629998915884e-02 1.6690798214281780e-01 2.5541199981010718e-02  -2.9492574939278704e-02 1.6700143942465004e-01 2.9833166380870038e-02  -3.3506571709215033e-02 1.7369204491261653e-01 3.2425561025310579e-02  -3.2347979899876950e-02 1.6275696106672724e-01 3.3246627621040969e-02  -3.0686831255871929e-02 1.6656459043349611e-01 3.3465946293051461e-02  -3.4445213368246665e-02 1.7360244713423681e-01 3.5068123004655408e-02  -3.3131391439853296e-02 1.6138261891948233e-01 3.7343667441569042e-02  -3.1717114633433990e-02 1.6550412163430231e-01 3.6757087758762977e-02  -3.5256755661515093e-02 1.7281828838727406e-01 3.7349736197799681e-02  -3.3835300995855772e-02 1.5934325953747860e-01 4.1206561376730420e-02  -3.2668741072304247e-02 1.6377301950646453e-01 3.9792170743186785e-02  -3.5977755722691372e-02 1.7131212521179531e-01 3.9310238815412832e-02  -3.4516442443274967e-02 1.5651765981466673e-01 4.4956144602379060e-02  -3.3617469750530329e-02 1.6127256903135095e-01 4.2638567183495332e-02  -3.4643516309212731e-02 1.5782888006398854e-01 4.5336937747212945e-02  -2.7835240657372324e-02 3.9193747404807425e-02 -6.3941837737307968e-03  -2.7459573436599050e-02 2.5513611618565048e-02 -8.7338534887540561e-03  -2.8686100956244232e-02 2.5989729768932397e-02 -9.5099258545076580e-03  -2.8030096411672478e-02 1.9449431416100026e-02 -7.0744248592250090e-03  -2.6817965102468335e-02 1.9158933248056186e-02 -6.5054793506429650e-03  -2.7123528840154419e-02 3.2724460743631091e-02 -1.9520317232028907e-03  -2.7490649666776560e-02 1.3708257579238754e-02 -4.1908262593753015e-03  -2.6179002343602601e-02 1.3577823816124483e-02 -3.8463170251197623e-03  -2.6558982772156545e-02 2.7296203633713961e-02 2.6967480577478006e-03  -2.6960474691385163e-02 9.1064214850322209e-03 -9.5334511327636721e-04  -2.5581923064414539e-02 9.0965880557717371e-03 -8.2750192970206427e-04  -2.6044009935365309e-02 2.2478361370711686e-02 7.6155459326705897e-03  -2.6256176785713153e-02 5.3382143910347523e-03 2.8467777456911143e-03  -2.4831273788265877e-02 5.4534317612735380e-03 2.7467373491513350e-03  -2.5453200287974216e-02 1.8116766128127064e-02 1.2959525121525838e-02  -2.5438916718119649e-02 2.2068437623807323e-03 7.2078121034472864e-03  -2.4016253997566028e-02 2.3804948613519745e-03 6.8971742201986309e-03  -2.4773889649786631e-02 1.4194699003757591e-02 1.8902994323952843e-02  -2.4747461184856146e-02 -5.5536899136500895e-04 1.2151051674722458e-02  -2.3297442507247999e-02 -3.0548462371767876e-04 1.1644746337958473e-02  -2.4087898358300656e-02 1.0642313893900458e-02 2.5477138309028105e-02  -2.5465117248220464e-02 3.3379415566586308e-02 -6.0774708403724736e-03  -2.4802819765390491e-02 2.1096344446024037e-02 -7.2577952902612482e-03  -2.6230323272091332e-02 2.0261606164643273e-02 -8.6191015230077193e-03  -2.5648699170586677e-02 1.4028555797280918e-02 -7.1022159062840776e-03  -2.4277521834798362e-02 1.5051748065065852e-02 -5.8073075466046472e-03  -2.4845826444951803e-02 2.7029440987795680e-02 -2.9525920776471855e-03  -2.5040913602686919e-02 8.8590000938969689e-03 -5.1845871372322213e-03  -2.3589567916335902e-02 9.9300891611277965e-03 -3.9675766992623646e-03  -2.4349491597003267e-02 2.1566671166465778e-02 4.8067764270773463e-04  -2.4342517317430021e-02 4.9166388993350813e-03 -2.9015057017636571e-03  -2.2873319214498266e-02 5.9349344964197432e-03 -1.7965986621859761e-03  -2.3778508000442272e-02 1.6801480076015753e-02 4.2166769686986681e-03  -2.3391878343042159e-02 1.8627846729848078e-03 -2.4220376008914534e-05  -2.1975004597204629e-02 2.7715308045918271e-03 9.1877513333348980e-04  -2.3123054835960777e-02 1.2695386280105683e-02 8.3640697671935240e-03  -2.2472973031673255e-02 -8.1912994299388690e-04 3.4506346013971341e-03  -2.1024804992044420e-02 -2.1425081451938405e-07 4.2404691570853310e-03  -2.2409234714742359e-02 9.0721711760954390e-03 1.3099545872218609e-02  -2.1616258730281033e-02 -3.2240484540174042e-03 7.4230936583729763e-03  -2.0085162892078783e-02 -2.4551928185659196e-03 8.1171249964142097e-03  -2.1729953808529906e-02 5.8858889240874374e-03 1.8495308544105041e-02  -2.8883477372547321e-02 4.6483896781876581e-02 -6.0438254040175747e-03  -2.8258626391485873e-02 4.0150138729937633e-02 -4.5292097997622419e-04  -2.9601623752896357e-02 4.0769048256784193e-02 -1.2338482508895733e-03  -2.7738653427483387e-02 3.4816623719634815e-02 5.0965113186388702e-03  -2.8242615341747428e-02 1.8624249144099957e-02 -1.6919161473771182e-03  -2.5866493525618813e-02 2.1576007361505892e-02 2.3703555424626592e-02  -2.5134940913099160e-02 1.7646115989900932e-02 3.1146967465338141e-02  -1.6954241157268159e-02 5.9904340527646378e-02 9.5245169361771170e-03  -1.7588837155176094e-02 5.4640399877603933e-02 1.4490724339445940e-02  -1.8046687534141452e-02 4.9907896337382240e-02 1.9450771635645746e-02  -1.8348877925354931e-02 4.5584784171312322e-02 2.4475331154973416e-02  -1.8476046523163803e-02 4.1535958442843961e-02 2.9694721110633791e-02  -1.8387804200720340e-02 3.7657885673750856e-02 3.5226941237148854e-02  -1.8047411527107808e-02 3.3825944848940311e-02 4.1138075535883813e-02  -2.1740500003663354e-02 1.0367826532921257e-01 6.6377768707135817e-03  -1.9629296594241018e-02 1.0623285845768785e-01 8.6021964344217862e-03  -2.1510771509146671e-02 9.0094245946498189e-02 4.3275114880992078e-03  -2.2188536081973749e-02 8.6358718588117153e-02 1.2119117895856450e-02  -2.0702083573059967e-02 1.0363901673169573e-01 1.6282796332453896e-02  -2.2628657205434586e-02 1.0068440778211289e-01 1.4605731517667832e-02  -2.2745609055062045e-02 8.2935159338850289e-02 1.9411784170282463e-02  -2.1622306717338075e-02 1.0111295203561495e-01 2.3415763919906116e-02  -2.3368868806193946e-02 9.7817884819006204e-02 2.2011878110177720e-02  -2.3219882041368968e-02 7.9688071663424676e-02 2.6525223894702205e-02  -2.2446966087284605e-02 9.8559109246328894e-02 3.0319415390168889e-02  -2.4016795297069182e-02 9.4963890762542746e-02 2.9179919534250701e-02  -2.3654693041763378e-02 7.6496042709972567e-02 3.3754660660989547e-02  -2.3235623091599555e-02 9.5889989347026416e-02 3.7294928590802773e-02  -2.4629861392397357e-02 9.2017832764908214e-02 3.6423072681274649e-02  -2.4095224470258924e-02 7.3269354008168974e-02 4.1384224583663566e-02  -2.4058967283553188e-02 9.3044273585086421e-02 4.4657911678859200e-02  -2.5273848266372488e-02 8.8897125432393947e-02 4.4057200463723439e-02  -2.4608122253096620e-02 6.9949058924977894e-02 4.9701721103287147e-02  -2.5011447587961099e-02 8.9998752083061795e-02 5.2741015199166449e-02  -2.6032609075302963e-02 8.5551564660299270e-02 5.2406553684726027e-02  -2.6453312117990877e-02 3.8304283539234332e-02 -5.8104371684278410e-03  -2.5797715797115435e-02 3.2028719706538519e-02 -1.7727060969098885e-03  -2.5274843447288989e-02 2.6656038811576063e-02 2.6264125130332962e-03  -2.4742300145898125e-02 2.2001653646921152e-02 7.2693696236726807e-03  -2.4156842196877189e-02 1.7798624403015446e-02 1.2313214661241417e-02  -2.3452106784133783e-02 1.3959468705165906e-02 1.7925895239231320e-02  -2.2774171262755806e-02 1.0456256181538540e-02 2.4194655866050751e-02  -1.3434994405393117e-02 9.0474790885932910e-02 2.0997109941358765e-02  -1.2992957993193629e-02 8.0116215879437763e-02 2.3949754960731012e-02  -1.3662642809562727e-02 7.7428006445754580e-02 2.0247826567661109e-02  -1.4735708543027954e-02 7.4644999808171866e-02 2.6587925452699779e-02  -1.4133834713025104e-02 7.7916183101407160e-02 3.0297699300501878e-02  -1.4597927632694185e-02 8.8977436932895893e-02 2.7581000399139452e-02  -1.5704305877854593e-02 7.2226040504509703e-02 3.2541439670027768e-02  -1.5194310255844000e-02 7.5994633301243661e-02 3.6211510969988051e-02  -1.5733319508004950e-02 8.7594588379345639e-02 3.3688107388039117e-02  -1.6576153834890354e-02 6.9992563214011150e-02 3.8363756418113272e-02  -1.6178311688152241e-02 7.4202964151169240e-02 4.1977504102784495e-02  -1.6826226038616238e-02 8.6246755700479280e-02 3.9620435717889771e-02  -1.7346789455966051e-02 6.7857336051662928e-02 4.4262270527525606e-02  -1.7091779310274502e-02 7.2472568250370670e-02 4.7805141534535758e-02  -1.7871906808905848e-02 8.4884948715586231e-02 4.5619500577539690e-02  -1.7997692527241774e-02 6.5756075404235712e-02 5.0371451173723561e-02  -1.7923434354522011e-02 7.0757403342082137e-02 5.3835044412837284e-02  -1.8850547007340613e-02 8.3491213734699768e-02 5.1873299647306186e-02  -1.8490426583777943e-02 6.3662041450830931e