<?xml version="1.0"?>
<VTKFile type="UnstructuredGrid"  version="0.1"  >
<UnstructuredGrid>
<Piece  NumberOfPoints="932" NumberOfCells="3994">
<Points>
<DataArray  type="Float64"  NumberOfComponents="3"  format="ascii">8.012256321013862 1.557331764620685 2.883399768510336  7.909690654241443 1.572431076726343 2.924486961336409  7.953959780203164 1.513293336318582 2.81017847784722  7.958426166725816 1.462420280870411 2.837432570456956  7.914357830519021 1.52330878949829 2.953920864236319  8.01762482243779 1.508019037529038 2.912213497277862  7.918904925045229 1.47418357528477 2.983354999374136  8.022891477249509 1.458706435546555 2.941044398686539  7.96275063449369 1.411531809070797 2.864680620877128  7.92339115869385 1.425062540660339 3.012775228449422  8.028104844381057 1.409397781612538 2.969869216657686  7.96700994948139 1.360637824115142 2.891923915589775  8.033303902212472 1.360096428987297 2.998685491605567  7.927857768532501 1.375951563228968 3.042180478012046  7.971257435373692 1.309745986437087 2.9191624431162  8.038530018298218 1.310804615759781 3.027497422790229  7.932348945302095 1.326854043830829 3.07157563320191  7.975544600003882 1.258862915768494 2.946403937938087  8.043837510166744 1.261510323328546 3.056308505915081  7.936941803491762 1.277771034129902 3.100962195659024  7.979946876803911 1.207999961559264 2.973658326359116  8.63193875601179 1.719631289783827 3.000193699035744  8.570446044468847 1.749101849148635 3.059896882294999  8.580812950698808 1.677878654000604 2.943633114059218  8.58715103183382 1.632038211064116 2.971665314693171  8.576066689228641 1.703967878531028 3.088373292641902  8.638041018137228 1.674254752181105 3.02818450536112  8.593451666471637 1.586215379989379 2.999724347190118  8.581630583189561 1.658854771674415 3.116872746485849  8.644104325790497 1.628893029652046 3.056195242485366  8.599733259829557 1.540400435882907 3.02778396928161  8.587163946578583 1.613754400138512 3.145369130976469  8.650145790272234 1.583539449500498 3.084202900883442  8.606003304489219 1.494590210060311 3.055833476058378  8.592683201241849 1.56866120883154 3.173850053996229  8.65617637821355 1.538191454042021 3.112197012999554  8.61226547994492 1.448781715441418 3.083869386140457  8.598202567533058 1.52357095247821 3.202305797779887  8.662204080262251 1.492846725459636 3.140172167556285  8.618524887175816 1.402965805669646 3.111885222473034  8.603747854232658 1.47847406245002 3.230719417716381  8.668231561018491 1.447490757271195 3.168126343758195  7.829517056791027 1.50763393961998 2.819826390950272  7.833686514532054 1.4563965976307 2.847318218185246  7.837706542110764 1.405148578894544 2.874767239641004  7.841652633241948 1.353904081575252 2.902195239771091  7.845584389514293 1.302672653632374 2.929608888691566  7.849561114373917 1.251468045132896 2.957018302932148  7.853650765922052 1.200311379920549 2.984447229684125  8.461982765634321 1.711579446023816 3.021911355744448  8.468102346288472 1.666230227930651 3.050839742049168  8.474178935614013 1.620916384590111 3.079799747445805  8.480228506036761 1.575615127297332 3.10876364721221  8.48626330221966 1.530319471554256 3.137715711706342  8.492294551365443 1.485022340979167 3.166644983847872  8.498326669654256 1.439711560380615 3.195530064726643  8.785000649550204 1.508458591726102 2.218545167109312  8.829261961723663 1.519893364385529 2.351681881466638  8.701524779605267 1.488457829763067 2.345573758274285  8.715349401346078 1.431900520465533 2.347482997708925  8.856529518938723 1.408691026331007 2.356782764915007  8.8155917200756 1.396087273595136 2.211255137808454  8.729430591955243 1.375378781185662 2.349334663214615  8.831149601338334 1.340031352806665 2.207501496078323  8.870393481855743 1.353186757890479 2.359228118293865  8.743595745268561 1.318881101916643 2.351160754731516  8.846670433621679 1.284015247224772 2.203756867934394  8.884231833523902 1.297712513586374 2.361671956906095  8.757732769472925 1.262390674130226 2.352995440824552  8.862013279833953 1.227993731037308 2.2000715179152  8.897914283709735 1.24223943976896 2.364160189416463  8.771737565159244 1.205881948831158 2.354870773403977  8.876981943354807 1.171868364188725 2.196514999487009  8.911268026980755 1.186724861634997 2.366749582668999  8.785455280787854 1.14928419978062 2.356810954340567  8.649345434657546 1.475232078862941 2.233320094402868  8.662698331538394 1.417576709224019 2.231401499013713  8.676291979030928 1.359924844263116 2.229399063284017  8.689963856524876 1.302291421729903 2.22736839890816  8.703605343142385 1.244658506842035 2.225350133361306  8.717118931892323 1.18698895076725 2.223380950372234  8.730400363340063 1.129212213803414 2.221498472413535  7.716536688769298 1.360799646066515 2.443033408508486  7.631361755782614 1.362128434945527 2.49844034466622  7.634139639052011 1.340309849192882 2.379390048541788  7.640555695022217 1.280011900846062 2.389107826528591  7.637176498542557 1.303346300660042 2.513321209663203  7.722333965748839 1.301448519956668 2.454616549443258  7.64683288526892 1.219765272341844 2.398877458235906  7.642852129383525 1.244617861370003 2.528207853150469  7.727981654282805 1.242138024633837 2.466229811941797  7.653034134737781 1.159555379243781 2.408663199457697  7.648451670989068 1.185935170903717 2.543088680331336  7.733550286662458 1.182856270299351 2.477853457769533  7.659201458220782 1.099379915764432 2.418451738110155  7.654016318474959 1.12730038483258 2.557961561370288  7.739087932355852 1.123607090159603 2.489479356399385  7.665378255739089 1.039250733310074 2.428232064439586  7.659585569586743 1.068734395531376 2.572823521030786  7.744641670550847 1.064399329895604 2.501103159416498  7.671627948808534 0.9792156860036336 2.437975819288079  7.66522011288326 1.010271760943568 2.587663766410215  7.750282034114877 1.005266328654177 2.51270782131216  8.792711343228348 1.519035826489619 2.461228307255782  8.806734662091706 1.464308487888947 2.469386920907647  8.821055506917544 1.409653171102029 2.477462389916659  8.8354665144586 1.355043717973736 2.485498847948096  8.849841447398017 1.300461825702283 2.493537002258924  8.864040391419898 1.245885015003872 2.501617666408571  8.877850159991912 1.191235900488612 2.509790942097785  8.469229416326661 1.545929018066075 2.742010186627864  8.421284804575246 1.587098483850096 2.832680099919801  8.321506308380593 1.551522874088562 2.794741295730565  8.328926205306141 1.50234314720833 2.821634409379361  8.428611598417186 1.539094093509953 2.86012045841001  8.477528623834552 1.496541036350521 2.76817754245482  8.336302891509243 1.453162898592946 2.848568327490784  8.43590408705445 1.491099655100014 2.887602377241027  8.485819223817614 1.447140151570201 2.794366912279699  8.34365720603747 1.40397415767306 2.875520005723423  8.443180305344949 1.443106075133024 2.915090924304023  8.494106483005254 1.397726820172653 2.820564555645108  8.350996627750893 1.354777279366846 2.902481936629661  8.450441065289992 1.395112703641789 2.94258092906222  8.502381186906963 1.348308497061434 2.846768865374171  8.358330144333852 1.305572658436876 2.92945709958713  8.457684289693445 1.347119723786431 2.97007723494619  8.510632657288854 1.298885294469124 2.872991068190598  8.365679947146875 1.256359194327674 2.956444268814836  8.464933987652202 1.299119617330535 2.997583428440791  8.518858633733618 1.249450444224711 2.899265873227358  8.598185880528179 1.465349504462144 2.350161021917827  8.609951710819166 1.407722063223947 2.353238414746711  8.621853172997247 1.350060897010826 2.356287270956148  8.633798685211024 1.292391331780127 2.359319764028756  8.645719598915454 1.234714987407378 2.362366684654659  8.657558182537642 1.177008255315698 2.365457033079744  8.669278155297738 1.119222596081533 2.368604329828679  8.370972186547618 1.431954345214552 2.395625148140771  8.325925508472805 1.439485683968077 2.494715510285805  8.229322304136105 1.411554413418902 2.384078005308129  8.237441910986728 1.35254192733091 2.390105502936414  8.334200161020664 1.381985147147658 2.505598746713428  8.379562489262224 1.373469604492473 2.401984092782018  8.245453046458739 1.293499463686076 2.396147704360829  8.342417596518874 1.324452190997528 2.516502014763461  8.388068260183115 1.31495110823505 2.408339594954306  8.253418678461678 1.234440004222928 2.402204777060531  8.350608149225925 1.266902328253706 2.5274170839474  8.396544440073249 1.256411675453621 2.414699192390785  8.261376595949145 1.175373491611737 2.408275593302054  8.358788613138691 1.209342344229261 2.53834651364129  8.405012040940726 1.197860112281448 2.42107460926767  8.269365809953044 1.116306647899252 2.414359866884285  8.366971232581006 1.151771791895291 2.549292943510362  8.413495193616301 1.139302270254435 2.427478967021704  8.277437112572022 1.057245746626349 2.420454508380253  8.375173632729565 1.094181783009916 2.560263604530451  8.422038705981375 1.080732911250053 2.433917476081721  8.726903355846202 1.382095297451204 2.075733694993439  8.711585913310445 1.438934281303991 2.086198240119265  8.742281535472896 1.325340422873819 2.065251022393002  8.757594619072249 1.268626324949081 2.054787955691678  8.772717118903651 1.211895784906056 2.044375085351681  8.311547245372507 1.417120945765815 2.312946495005906  8.319901132257138 1.357730104861194 2.315600368758128  8.328148624586905 1.298309730513592 2.31825855021572  8.336358769497936 1.238871579271758 2.32092427206843  8.344559805721342 1.179424406190122 2.323603966931788  8.352780597925772 1.119975490393296 2.326303211282278  8.361083206685077 1.060543052670019 2.329022585128404  8.362876862409733 1.50177583527465 2.690301597829196  8.369950633611307 1.449323184354923 2.712977600263146  8.376933749886668 1.396837620836033 2.735696379869415  8.383886803455944 1.34433850843458 2.758428244088909  8.390829134143043 1.291831477659205 2.781173479737863  8.397781834012418 1.239317638329842 2.803942901847362  8.404798120320148 1.186798487505141 2.826737482635552  8.674165603284674 1.488314473569981 2.4575741383
[...]
<PointData  Vectors="f_16"> 
<DataArray  type="Float64"  Name="f_16"  NumberOfComponents="3" format="ascii">-6.2707793391336853e-03 -1.1190916196786950e-01 3.3877274685364507e-02  -4.8295496529527256e-03 -1.1328320858994533e-01 3.5543586084621118e-02  -6.3741941851129282e-03 -1.1082004895785917e-01 3.3248955143718645e-02  -5.5486402759555194e-03 -1.1131287555735725e-01 3.1779470498571515e-02  -4.0469439776838166e-03 -1.1359468349129176e-01 3.5194379856152411e-02  -5.4020686260697571e-03 -1.1229795897647853e-01 3.3057485272656742e-02  -3.3521320726706701e-03 -1.1335859551042977e-01 3.4851823235433239e-02  -4.6249083637507869e-03 -1.1215317445472472e-01 3.2313696651201464e-02  -4.8233410965661692e-03 -1.1136818045630066e-01 3.0478979783074830e-02  -2.7348016669580750e-03 -1.1269473931356784e-01 3.4400051332144264e-02  -3.9238199694479527e-03 -1.1162250975872832e-01 3.1486112815364509e-02  -4.1654551876324211e-03 -1.1108574607404859e-01 2.9175444684232828e-02  -3.2766344464289932e-03 -1.1081318499204737e-01 3.0443652665675818e-02  -2.1743080562072227e-03 -1.1169251197788062e-01 3.3721207962491423e-02  -3.5496992118081408e-03 -1.1056120173827726e-01 2.7711259796252278e-02  -2.6593967716022960e-03 -1.0982792508955239e-01 2.9058949833871722e-02  -1.6489627539262161e-03 -1.1044514078592192e-01 3.2708470802523711e-02  -2.9327043456016644e-03 -1.0989354484801576e-01 2.5950015747636508e-02  -2.0362899186024950e-03 -1.0878840873719307e-01 2.7259817141947671e-02  -1.1028137399419517e-03 -1.0906358254985803e-01 3.1253951919022402e-02  -2.2803734284527009e-03 -1.0912309615340457e-01 2.3739165857734393e-02  -1.2900026885237914e-02 -1.0555298746463382e-01 2.4848773152324671e-02  -1.2087861006774682e-02 -1.0559097043528856e-01 2.5180621732244869e-02  -1.2464864906423493e-02 -1.0639035270494679e-01 2.5982120535813565e-02  -1.1259120238461897e-02 -1.0642702963424017e-01 2.5961757951159476e-02  -1.0899590500894327e-02 -1.0503622047758507e-01 2.6437074531144789e-02  -1.1690718075412479e-02 -1.0530622595518309e-01 2.5474491752175615e-02  -1.0160325368737960e-02 -1.0597227520588837e-01 2.5924263802032416e-02  -9.7825835332575294e-03 -1.0402634883215853e-01 2.7480408848779312e-02  -1.0561529368232174e-02 -1.0457957104915332e-01 2.5980409521588563e-02  -9.1438704119831092e-03 -1.0514304044015149e-01 2.5778473274380376e-02  -8.7477235789483517e-03 -1.0262929148726296e-01 2.8318616650286999e-02  -9.5184630548238881e-03 -1.0347002043399707e-01 2.6334023904959491e-02  -8.1913503688982384e-03 -1.0402414387092174e-01 2.5421426918898732e-02  -7.7812879668299091e-03 -1.0088830008020690e-01 2.8920711185887033e-02  -8.5396617357263761e-03 -1.0204506820814387e-01 2.6465630857879296e-02  -7.2867701398811229e-03 -1.0268299918795923e-01 2.4733673390364783e-02  -6.8718773298796169e-03 -9.8818378010087124e-02 2.9227807722604398e-02  -7.6084024857545497e-03 -1.0035024034349868e-01 2.6284797306973334e-02  -6.4181682641513832e-03 -1.0117163263607905e-01 2.3576453468289901e-02  -6.0016238357515541e-03 -9.6418496173872340e-02 2.9150538947922553e-02  -6.7163711716797265e-03 -9.8424738126975123e-02 2.5672037414120292e-02  -4.9636731392311180e-03 -1.1197064997554082e-01 3.4995651379819276e-02  -4.2285131284840035e-03 -1.1252958193568136e-01 3.3627790624388108e-02  -3.6117230800450043e-03 -1.1260169878268600e-01 3.2417525926933567e-02  -3.0598064212999038e-03 -1.1230598063789891e-01 3.1197700744320274e-02  -2.5425253489241794e-03 -1.1174572777517323e-01 2.9817847701698978e-02  -2.0310335172779677e-03 -1.1100144916944685e-01 2.8132150400634236e-02  -1.4878530842599336e-03 -1.1011372078753422e-01 2.5974664813676236e-02  -1.0803595871403325e-02 -1.0770784226075270e-01 2.7676757328309598e-02  -9.6632620926518087e-03 -1.0743221538923853e-01 2.8481111781151609e-02  -8.5988484067095541e-03 -1.0666196232960995e-01 2.9124816160681220e-02  -7.6177262855840304e-03 -1.0549537624036047e-01 2.9586297243533771e-02  -6.7077243214310120e-03 -1.0399462980424955e-01 2.9808551111802396e-02  -5.8620154668434891e-03 -1.0219555571085552e-01 2.9703877174522966e-02  -5.0847692197584027e-03 -1.0009506525342236e-01 2.9136816446850986e-02  -2.1896944263617834e-02 -8.0232068416735650e-02 1.2574627670141009e-03  -2.0771095239598417e-02 -8.5515215285654894e-02 5.1662190136848134e-03  -1.9483955268208616e-02 -8.6056177980279508e-02 6.7790448838561902e-03  -1.9279967399542554e-02 -8.4818940539892293e-02 4.3019375377804352e-03  -2.0389378021917891e-02 -8.3311643971819491e-02 5.8171968754472760e-04  -2.2021534399077777e-02 -7.7433309708266090e-02 -2.6935654330385588e-03  -1.9043526089410828e-02 -8.3755552241360595e-02 1.9487723526617996e-03  -2.1985328992017040e-02 -7.6426354559103848e-02 -4.5550492013316018e-03  -2.0142691258128377e-02 -8.2470099902182903e-02 -1.5440895708944864e-03  -1.8780782834440388e-02 -8.2869287406936901e-02 -3.2837352815203450e-04  -2.1888809800562216e-02 -7.5621155331857273e-02 -6.4478384088177444e-03  -1.9857838305915875e-02 -8.1775116814030227e-02 -3.6815358712734996e-03  -1.8482979736551951e-02 -8.2136084567342407e-02 -2.6082697330230310e-03  -2.1727301155887422e-02 -7.4988792476004068e-02 -8.4283715883025339e-03  -1.9532909783119921e-02 -8.1215880085302214e-02 -5.8958815976873288e-03  -1.8143717882928487e-02 -8.1537137915196109e-02 -4.9496023861524668e-03  -2.1488211475123493e-02 -7.4510970914186223e-02 -1.0547595462679152e-02  -1.9166860040031708e-02 -8.0780771582139352e-02 -8.2380784417773398e-03  -1.7757361157929225e-02 -8.1041844121215081e-02 -7.3884685346638987e-03  -2.0364891124849453e-02 -8.1639764509999949e-02 3.8883489016085849e-03  -2.0277906874084404e-02 -8.0168343884618534e-02 1.6268277634514062e-03  -2.0178044184705222e-02 -7.8956489539199023e-02 -4.7497886132016393e-04  -2.0041803531457719e-02 -7.7977362185184487e-02 -2.5246470490676164e-03  -1.9856852174227946e-02 -7.7192127268910157e-02 -4.5993301575607774e-03  -1.9611035824707843e-02 -7.6569499815586542e-02 -6.7571633405160850e-03  -1.9291175042425602e-02 -7.6088190239869277e-02 -9.0434672602067532e-03  -8.0462923143039145e-03 -9.7428477644987632e-02 2.4074464968889191e-02  -6.4569993760407764e-03 -1.0015952414622702e-01 2.6898056240053911e-02  -7.8930187602100788e-03 -9.4400344479401835e-02 2.2588004306811557e-02  -7.8390287038632503e-03 -9.3757523304694806e-02 1.9365282918697328e-02  -6.2537519786088833e-03 -9.9991877194713905e-02 2.3714864131450644e-02  -7.8116688861474765e-03 -9.6979897750534422e-02 2.0878509536033180e-02  -7.7720396109307345e-03 -9.3168614304187408e-02 1.6385396365685478e-02  -6.0627047203569906e-03 -9.9745892366641470e-02 2.0809266457051185e-02  -7.6018208401522156e-03 -9.6526916306835714e-02 1.7933477130371370e-02  -7.6990480603078681e-03 -9.2629922135391729e-02 1.3505042615347343e-02  -5.8881132376562969e-03 -9.9437277229986784e-02 1.8008808384762320e-02  -7.4059668831091595e-03 -9.6073594605166096e-02 1.5093548797520513e-02  -7.6277883399075942e-03 -9.2139894139232667e-02 1.0616910843179917e-02  -5.7248844754717414e-03 -9.9095318453364195e-02 1.5170103572995466e-02  -7.2162555345336452e-03 -9.5633010090896420e-02 1.2237904370322423e-02  -7.5650626831232567e-03 -9.1705280810796042e-02 7.6303164754687415e-03  -5.5685115353433512e-03 -9.8756556171366611e-02 1.2179901293046099e-02  -7.0255720813719395e-03 -9.5222071406064576e-02 9.2725937960082220e-03  -7.5190523705398263e-03 -9.1322328654511023e-02 4.4645312769600112e-03  -5.4121262921390315e-03 -9.8479882266771152e-02 8.9625747123647844e-03  -6.8354488623519902e-03 -9.4806005664944779e-02 6.1335932718912002e-03  -1.9061118619941139e-02 -9.0190151994343271e-02 9.3756326003621698e-03  -1.8652750549363984e-02 -8.9335672208796887e-02 6.8148778480512755e-03  -1.8221764102549345e-02 -8.8600558664358897e-02 4.4570390703450495e-03  -1.7780886334198293e-02 -8.7946456273382531e-02 2.1894550758837484e-03  -1.7325040464101098e-02 -8.7371802362087234e-02 -9.0785947444552967e-05  -1.6845504796568586e-02 -8.6890638850415036e-02 -2.4678267000174106e-03  -1.6325937401530044e-02 -8.6542966506981164e-02 -4.9969066062516866e-03  -1.2562392332397579e-02 -1.0369481215390663e-01 2.4247914900796311e-02  -1.1264846595041159e-02 -1.0674297687637158e-01 2.7340684783054115e-02  -1.0504427178165219e-02 -1.0686554672116959e-01 2.7991824044771997e-02  -9.4525322577313307e-03 -1.0728764065376090e-01 2.6358003639346539e-02  -1.0150767533875152e-02 -1.0713216465696467e-01 2.6118062228478511e-02  -1.1511734606973507e-02 -1.0406086294736774e-01 2.2290906399494298e-02  -8.4991877825364125e-03 -1.0729463414048469e-01 2.4964595446745532e-02  -9.1382822004410988e-03 -1.0705668980836774e-01 2.5039332440325870e-02  -1.0533543684942269e-02 -1.0407857896410176e-01 2.0648116339672989e-02  -7.6095829049780154e-03 -1.0700760003389237e-01 2.3583389520521678e-02  -8.1975486520490456e-03 -1.0665933113382253e-01 2.3943983539530155e-02  -9.6131999652295588e-03 -1.0386349829177996e-01 1.9074823675055707e-02  -6.7655268679572495e-03 -1.0654264544290806e-01 2.2056584945581034e-02  -7.3100722329349907e-03 -1.0605583532082581e-01 2.2677282950585166e-02  -8.7295103913937085e-03 -1.0351539983945014e-01 1.7387867731452501e-02  -5.9524868894121168e-03 -1.0599992792702634e-01 2.0242364857949068e-02  -6.4604838267525791e-03 -1.0534934507557270e-01 2.1093070184899011e-02  -7.8639310458581569e-03 -1.0313185206814764e-01 1.5431380554995560e-02  -5.1594732902344193e-03 -1.0544526970833808e-01 1.7992000065739682e-02  -5.6390727287287581e-03 -1.0463137412588716e-01 1.9063333685091607e-02  -7.0012278869572616e-03 -1.0281604114158664e-01 1.3029456039417148e-02  -1.8380112148991427e-02 -8.7004417513023763e-02 8.4709149187117312e-03  -1.8067215955424484e-02 -8.5817588748806559e-02 5.8891251143194335e-03  -1.7750425413750145e-02 -8.4816079935987193e-02 3.4551303869090949e-03  -1.7417118262699302e-02 -8.3978856795906914e-02 1.0943030944486163e-03  -1.7056138439003353e-02 -8.3283690453710701e-02 -1.2718938198486704e-03  -1.6654346556238413e-02 -8.2717028377112908e-02 -3.7050334478178669e-03  -1.6200853333312632e-02 -8.2264105889395422e-02 -6.2532883881334022e-03  -1.5563869209885771e-02 -9.0991567420302719e-02 1.3513655299783378e-02  -1.3861490049286197e-02 -9.5694928588330452e-02 1.7499684378066604e-02  -1.4256981511501961e-02 -9.1760515294356457e-02 1.5214378539533441e-02  -1.3788513296442845e-02 -9.0820112064775943e-02 1.2364252830109900e-02  -1.3222469495387593e-02 -9.5077869007840002e-02 1.4662627891476000e-02  -1.5062338043390692e-02 -9.0048593307704469e-02 1.0718296243512022e-02  -1.3360467046903145e-02 -8.9993867377815284e-02 9.6744051629634800e-03  -1.2628496596234830e-02 -9.4513747328906050e-02 1.2011160458169563e-02  -1.4597243873390229e-02 -8.9234493387096284e-02 8.1043037230158956e-03  -1.2947251143675833e-02 -8.9267602336988716e-02 7.0565529356492922e-03  -1.2058769497522048e-02 -9.3985487219176725e-02 9.4388039405741003e-03  -1.4145198042270711e-02 -8.8528785178531674e-02 5.5657441207073574e-03  -1.2527969131696692e-02 -8.8629059180092118e-02 4.4367873520620472e-03  -1.1489761106896521e-02 -9.3497501419119361e-02 6.8525462574690003e-03  -1.3684519105050127e-02 -8.7918960728576176e-02 3.0226939077136633e-03  -1.2084677917874070e-02 -8.8070795588538808e-02 1.7561281580064428e-03  -1.0898437481573540e-02 -9.3061910242501447e-02 4.1818917750013583e-03  -1.3195614697768268e-02 -8.7398706765511397e-02 4.1122704983612260e-04  -1.1604195856765502e-02 -8.7575098488141850e-02 -1.0316587860728665e-03  -1.0266257430299169e-02 -9.2697147235305200e-02 1.3829229325796738e-03  -1.2659536010267470e-02 -8.6963261550682194e-02 -2.3226419981515491e-03  -2.2903709925824609e-02 -7.2453600691873746e-02 -4.6676979772876642e-03  -2.2705686531804041e-02 -7.3828795364772715e-02 -3.1563480755827183e-03  -2.3032157584643949e-02 -7.1372565807253513e-02 -6.1930406064930202e-03  -2.3086761662351681e-02 -7.0526799274250651e-02 -7.7740959244743234e-03  -2.3059626158897454e-02 -6.9878628416786784e-02 -9.4456198409658253e-03  -1.5983927954592875e-02 -8.7860794922048915e-02 1.1646034614944118e-02  -1.5600510569925135e-02 -8.6680493357254335e-02 8.9524462358743610e-03  -1.5252205114935464e-02 -8.5683941201024377e-02 6.4030179360684983e-03  -1.4913531366360325e-02 -8.4832945630986756e-02 3.9160170742674983e-03  -1.4561310006159924e-02 -8.4106007937806315e-02 1.4235285610241209e-03  -1.4175346873611766e-02 -8.3488253312612046e-02 -1.1308201578470330e-03  -1.3736158662684050e-02 -8.2970127563155943e-02 -3.7955095977226330e-03  -1.1901003125539902e-02 -1.0309602861914099e-01 2.3893017706984734e-02  -1.0951104750418376e-02 -1.0322737943487786e-01 2.1570072858841847e-02  -1.0067405043725913e-02 -1.0317655443004410e-01 1.9545345032785776e-02  -9.2343624322659013e-03 -1.0296475580646564e-01 1.7580009871692077e-02  -8.4293946876446476e-03 -1.0266445332574869e-01 1.5512533295116950e-02  -7.6276067556725448e-03 -1.0236607923158161e-01 1.3223375445563089e-02  -6.7904005420092563e-03 -1.0220325793331859e-01 1.0637876894346443e-02  -1.7779781828149679e-02 -9.0860170952629701e-02 1.0830642497819891e-02  -1.7321913928326087e-02 -9.0028583552168515e-02 8.1970950002483774e-03  -1.6840739497355761e-02 -8.9329808879614350e-02 5.7458208213453906e-03  -1.6350141162063733e-02 -8.8717954310562550e-02 3.3783957145694698e-03  -1.5846179587305980e-02 -8.8185942558602709e-02 9.9058791657095002e-04  -1.5318758336032383e-02 -8.7748716546210373e-02 -1.4957321684742448e-03  -1.4756164650891855e-02 -8.7447808407407693e-02 -4.1296349262303278e-03  -6.3796485391780971e-03 -9.5484027947007347e-02 2.1576885237426208e-02  -6.3852400835376676e-03 -9.5001431975777331e-02 1.8513687423049086e-02  -6.3807599316791043e-03 -9.4542413562540742e-02 1.5572331874744839e-02  -6.3801589593562172e-03 -9.4118744813511554e-02 1.2620607985461611e-02  -6.3988367309215539e-03 -9.3743157153493822e-02 9.5553993651519096e-03  -6.4531198113271897e-03 -9.3386403291985928e-02 6.2965462183341642e-03  -1.6160003711749037e-02 -9.5762752289649367e-02 1.5638875840774079e-02  -1.6636854393647735e-02 -9.1839468128955132e-02 1.2627312573273776e-02  -1.6089818809784572e-02 -9.1067566678069173e-02 9.9153435452703099e-03  -1.5446714223198425e-02 -9.5399361496524879e-02 1.2993366059646296e-02  -1.4751916055338524e-02 -9.4980178553954436e-02 1.0612504455673005e-02  -1.5555395387217208e-02 -9.0407758512196804e-02 7.4072885567771545e-03  -1.4075576892019983e-02 -9.4557360950354177e-02 8.3369589165105014e-03  -1.5021587894198189e-02 -8.9833192173576937e-02 4.9813753993444209e-03  -1.3403044817371468e-02 -9.4157951367264028e-02 6.0314619832588260e-03  -1.4477954067268791e-02 -8.9338137596904080e-02 2.5388125116876919e-03  -1.2726563782580240e-02 -9.3806898437477942e-02 3.6000380170072661e-03  -1.3912015972541615e-02 -8.8929445874172827e-02 6.8950128353224012e-06  -1.2044209638892078e-02 -9.3500803363740698e-02 9.6239832594716861e-04  -1.3303943514777060e-02 -8.8636864695602932e-02 -2.6718909259190746e-03  -1.8299553636441444e-02 -8.9926728001669606e-02 9.9787462226753991e-03  -1.9458502902493641e-02 -8.2739084197259977e-02 4.9701908492591510e-03  -1.8131608165907444e-02 -8.3495442421049226e-02 6.6504230385048702e-03  -1.6869498166561379e-02 -8.0843813846388918e-02 1.0521959825718291e-02  -1.7068168290747431e-02 -8.8020258616745353e-02 1.3076863853665159e-02  -1.1140369532596001e-02 -1.0462152701582014e-01 2.4756472229917795e-02  -1.0010653538338693e-02 -1.0357896724910813e-01 2.6796843422849912e-02  -8.9270132582442187e-03 -1.0214866199994235e-01 2.8499022365866610e-02  -7.9226025877418057e-03 -1.0035169553531441e-01 2.9941818153980275e-02  -6.9879906246715908e-03 -9.8193988283474337e-02 3.1147841135383120e-02  -6.1203141307397549e-03 -9.5646770460334110e-02 3.2113691076178140e-02  -5.3238625265301688e-03 -9.2649676304030606e-02 3.2810449602079982e-02  -1.4264079242827049e-02 -1.0022343374343626e-01 2.0064063115774924e-02  -1.4803148223684484e-02 -9.7175699432617335e-02 1.7498859749502705e-02  -1.4066263990583281e-02 -9.6778614504136107e-02 1.4813009773269447e-02  -1.3357493669898976e-02 -1.0022281592829101e-01 1.7715748158254985e-02  -1.3363719208212695e-02 -9.6352614832523206e-02 1.2336764720605216e-02  -1.2490695720270993e-02 -1.0006609047313232e-01 1.5672334780051707e-02  -1.2682602415272803e-02 -9.5914870564517224e-02 9.9451397046409536e-03  -1.1660605983095927e-02 -9.9779726280096764e-02 1.3694468454515132e-02  -1.2008857323928536e-02 -9.5492980442613631e-02 7.5192216412005974e-03  -1.0854125383473998e-02 -9.9428371743529420e-02 1.1627180305990650e-02  -1.1328054937994955e-02 -9.5121828125807426e-02 4.9808361698369039e-03  -1.0055354181831120e-02 -9.9095796019109145e-02 9.3495318372810009e-03  -1.0630260540112790e-02 -9.4813976187476348e-02 2.2968211733437570e-03  -9.2520384431211897e-03 -9.8922786859102704e-02 6.7978895834706074e-03  -6.5544129014256771e-03 -1.0851722556487184e-01 3.1392244891297286e-02  -5.8543408214629675e-03 -1.0887792767128754e-01 2.9201916913566432e-02  -5.2488894183279405e-03 -1.0893066431863312e-01 2.7233119630815827e-02  -4.6987078574668257e-03 -1.0873202115172910e-01 2.5286841438957857e-02  -4.1720139486985611e-03 -1.0835938362572094e-01 2.3214793276491841e-02  -3.6343444369361737e-03 -1.0789164471388031e-01 2.0905519152147906e-02  -3.0506446225663916e-03 -1.0744444641407561e-01 1.8293428984814855e-02  -1.5717648411775802e-02 -8.6144490790807021e-02 1.1162351942801957e-02  -1.5434109959918544e-02 -8.4838593179722796e-02 8.5094395735090429e-03  -1.5177032923132213e-02 -8.3726344725008062e-02 5.9784491764898707e-03  -1.4927482635171569e-02 -8.2772665484308575e-02 3.5041447987801261e-03  -1.4663537127913051e-02 -8.1954382376468890e-02 1.0244385365848721e-03  -1.4364602200795891e-02 -8.1253153051184246e-02 -1.5120717464940097e-03  -1.4011902868102772e-02 -8.0656575397765176e-02 -4.1418992514248342e-03  -9.7707718458375833e-03 -1.0713970426903381e-01 2.7465555985869583e-02  -8.6922021741310824e-03 -1.0637742251971763e-01 2.9129284938068527e-02  -7.6735213153175420e-03 -1.0517746143185662e-01 3.0497928394958185e-02  -6.7355791311068010e-03 -1.0359184162186298e-01 3.1616627922619947e-02  -5.8738027728762526e-03 -1.0164296001880639e-01 3.2486352962682125e-02  -5.0902846146544320e-03 -9.9317418123460816e-02 3.3080296780285325e-02  -4.4027067277619377e-03 -9.6568393202559805e-02 3.3351074889242466e-02  -1.6946443359647206e-02 -9.3373583771795013e-02 1.3201828454329228e-02  -1.5702343514892934e-02 -9.1674211463630056e-02 1.6089154260008474e-02  -1.4518085062944325e-02 -8.9706298020520714e-02 1.8597985599268285e-02  -1.5697517006469753e-02 -7.8135398772799236e-02 1.3914555995287925e-02  -1.5927939924742757e-02 -8.5885805519809205e-02 1.5783610037884421e-02  -1.3408168184394175e-02 -8.7460364634484838e-02 2.0854168103631290e-02  -1.4591708535960160e-02 -7.5291684174782408e-02 1.7032082471011092e-02  -1.4860104388077345e-02 -8.3509246605557752e-02 1.8237114618201624e-02  -1.2352101983075686e-02 -8.4903235062788490e-02 2.2940530110506657e-02  -1.3527331853774324e-02 -7.2208782900719928e-02 2.0046362815104846e-02  -1.3199097020515386e-02 -1.0096149993305578e-01 2.1217728096240316e-02  -1.2300136967825831e-02 -1.0092978159767564e-01 1.8762954111087467e-02  -1.1446549697542290e-02 -1.0078386795854409e-01 1.6610578519406023e-02  -1.0631476852885633e-02 -1.0051876858855237e-01 1.4516340166347234e-02  -9.8392873614567486e-03 -1.0019472012588457e-01 1.2327666916478311e-02  -9.0510525682011185e-03 -9.9887248033560930e-02 9.9366351288749533e-03  -8.2372443496842931e-03 -9.9698890926749204e-02 7.2898866377209114e-03  -1.5201536209980299e-02 -9.3327669108433112e-02 1.4501317512221041e-02  -1.6278033555371638e-02 -8.4668435935601499e-02 8.9636866888545205e-03  -1.4818724067212288e-02 -8.8250314347750158e-02 1.1953258554367427e-02  -1.4985820076957470e-02 -8.1826233663982090e-02 1.2997482280349981e-02  -1.3925342266072886e-02 -9.1270631542151578e-02 1.7809284937404191e-02  -1.3523285418483532e-02 -8.5539343392995223e-02 1.5888347911903807e-02  -1.3752835117748741e-02 -7.8963009156105199e-02 1.6543