<?xml version="1.0"?>
<VTKFile type="UnstructuredGrid"  version="0.1"  >
<UnstructuredGrid>
<Piece  NumberOfPoints="951" NumberOfCells="4091">
<Points>
<DataArray  type="Float64"  NumberOfComponents="3"  format="ascii">4.932984353255196 0.991383876826032 2.316058901283675  5.058146722835554 0.9978618934830064 2.248768543440937  5.056716652649123 1.008595071950822 2.413087748003575  5.061178700670107 0.9466201059440015 2.421135886788293  5.062090765338733 0.9346407686130932 2.247932228597182  4.937200947535636 0.9292158145650143 2.317724882648696  4.941294994203971 0.8670511484484895 2.319388910199712  5.065904858164353 0.8713838717788165 2.247096908093197  5.065530848038268 0.8846265739544152 2.42920981830412  5.069858031534742 0.822632752667396 2.437285711328324  5.069685109401187 0.8081230407645419 2.246261669629565  4.945354081252185 0.8048971097195611 2.321055129501493  5.074196202733721 0.7606432884811583 2.44536745756885  5.073482954113252 0.7448649599899901 2.245434066876752  4.949430338025695 0.74275924518109 2.322730987972412  5.078587923162906 0.6986589152337173 2.453462247396989  5.077354064864689 0.6816039456860024 2.244623269751175  4.953581051882413 0.680648583132361 2.324426225384735  5.083132483812847 0.636662328466717 2.461571222654923  5.081388799153361 0.6183053310267925 2.243841654190033  4.957918838063984 0.6185684920888397 2.32614814339776  4.081640546948464 1.345659919939201 1.430598890936869  4.23050974949776 1.318620380464691 1.440013187991054  4.163335647225318 1.232107722132449 1.521832093096484  4.16137278021691 1.190854620275321 1.477309266070155  4.227838873704096 1.281717565004353 1.392448354756398  4.078280128389792 1.311203756975619 1.381906716524274  4.159221241807056 1.149627589325098 1.432832780608407  4.225001511751921 1.244841963234732 1.344910422967135  4.074739537361222 1.276773169233287 1.33326675525699  4.15699590645757 1.108434217542583 1.388395724197973  4.222110395081283 1.207991850452403 1.297407869074641  4.071134235946446 1.242371571026344 1.284677893952557  4.154778819233774 1.067270305393502 1.343995076461401  4.219240868722552 1.171162882878909 1.249940160994407  4.067544356577264 1.207998352651907 1.236138801736971  4.152647030972502 1.02613325662255 1.29963047776114  4.216466159467103 1.134349806411545 1.202507003572682  4.064054036771586 1.173657848594059 1.187652329087835  4.1507029295018 0.9850099551639796 1.255307842938965  4.213882653572034 1.097540518157281 1.155095247985158  4.060789958875551 1.139350654256149 1.139218865650837  3.933047626817647 0.895849284793385 2.125737915126262  4.06250084182857 0.9223124525139431 2.066134820512163  4.061575575361343 0.8891255688278126 2.189115044510169  4.067912079993287 0.8277560609383582 2.18143890907356  4.068343086093254 0.8629225807013235 2.050097921524667  3.937462511350494 0.8348163591037797 2.113591954256724  4.074056202413501 0.766410164002839 2.173691713536623  4.073987806583669 0.8035524905601205 2.034014241771385  3.941577425366857 0.7738097774102561 2.101356002838814  4.080126892420825 0.7051328041924751 2.165934034626506  4.079539444456548 0.7442274543147485 2.017923207631437  3.945560708851831 0.7128563922185733 2.089092501582036  4.086185598815323 0.6439289037202454 2.158193679297687  4.08506555468857 0.6849554315180271 2.001846409272345  3.949504209687744 0.6519625196380148 2.07683602579225  4.092307642106536 0.5827942693824949 2.150490897162344  4.090634922840106 0.6257375380701096 1.985793610388362  3.953507168075809 0.5911497651652579 2.064618899547127  4.09863385366883 0.5216872809342361 2.142848524317408  4.096372978230181 0.566560314549486 1.969782472431092  3.957806666276348 0.530451423102388 2.052473639747666  4.405814869923113 0.9630449992722787 2.070471169148994  4.412349664794169 0.993409535334129 1.941746875988626  4.50200568298384 0.9852331141203209 2.014485676233553  4.507693062662374 0.9252878194705529 2.00315355617152  4.417378693369229 0.934535888593427 1.925148958504704  4.412434593887422 0.9032397482639716 2.059930390042719  4.513309168076181 0.8653774413306861 1.991825905991856  4.422309929419074 0.8756923146709021 1.908561675639185  4.419004396859291 0.8434941204383523 2.049383716645754  4.518890976655906 0.8055022020001731 1.980501032210702  4.427192581385651 0.8168878521360564 1.891980002469841  4.425543638753638 0.7838006359808077 2.038832001215191  4.524468583631729 0.7456687042419188 1.969187871907358  4.432073091104334 0.7581273154369781 1.875411988489405  4.432069210250819 0.7241612529844519 2.028291322798891  4.530073639401902 0.6858852485762809 1.957898798848081  4.43700473600453 0.6994187925264737 1.858870849811244  4.438598960844422 0.6646006922707555 2.017782051324788  4.535756004923448 0.6261660413484598 1.946642341234806  4.442045778408275 0.6407723179805185 1.842359665243736  4.445165446467139 0.6051378882531663 2.007308987111877  4.254203839887175 1.148538482124086 1.600966615264932  4.312254563274783 1.23630390323713 1.512610894826096  4.378124277720152 1.173294959074846 1.573435718237403  4.379402895134503 1.125623084157085 1.53441029001632  4.310482048367197 1.194346404459654 1.468560619179416  4.254102643080818 1.100299904738604 1.562619915436509  4.380575705760496 1.077958016734575 1.495404717940637  4.308513491357494 1.152386023266631 1.424522751806723  4.253803846780729 1.052095725461293 1.524309313839779  4.3817094874938 1.03031381848412 1.45642177543432  4.306479167067399 1.110440013395325 1.380501142526454  4.25343981646868 1.003936058933926 1.486038292674307  4.382859624040954 0.9826893815668525 1.417463657139656  4.304461220840555 1.068508480434906 1.33650003579611  4.253089494648825 0.9558223106524465 1.447811042787605  4.3840703133411 0.9350809770954466 1.378533836028573  4.302536985218516 1.026584943528059 1.292515930355292  4.252840247730846 0.9077586286346828 1.409636878538301  4.385325782180604 0.8874671834554736 1.339631099815162  4.300808534086742 0.9846638807614674 1.248536241827538  4.252809994963342 0.8597273963405599 1.371487311704958  3.567212389403531 0.8468532829340146 2.173792412569871  3.703752688286283 0.860336621653393 2.259925771997227  3.594607238501702 0.8469055578849887 2.334883576455969  3.711197043699401 0.7974498362232665 2.26106966496767  3.577791528214281 0.782980000829101 2.168664859310205  3.603720841959586 0.7838942477983135 2.340490675477463  3.718506394106264 0.7346515157050526 2.262111106242178  3.588370273393346 0.7192022648289765 2.163478420259153  3.881121821600188 1.281564673511617 1.491038520804802  3.939874679943595 1.381746452343744 1.416574166579204  4.017183289190439 1.250366052094913 1.508123755633317  4.015263194308377 1.211300917720532 1.462031015446821  3.937034777034983 1.349834025799797 1.366739129957095  3.880279810332078 1.244886881945254 1.443359990727855  4.013166565442248 1.172288641849737 1.416010736270572  3.934063210932986 1.317956808186044 1.316986712367177  3.879320648253189 1.208257183964369 1.395750242167963  4.011001436998033 1.133325381982786 1.370056339898455  3.931042465586969 1.286111327390828 1.267301790216728  3.878314035252779 1.17167212479614 1.348208580103233  4.008842760824265 1.094406878848159 1.324159783886028  3.928026848820304 1.254298818811426 1.217677541900027  3.877305482933072 1.135127937252942 1.300727397777738  4.006766398673514 1.05554022192886 1.278325740701413  3.925070715071023 1.222529610996858 1.168120854840076  3.876341674620166 1.098631618221457 1.253314648036814  4.004884462790554 1.016724467420636 1.232561971745502  3.922266549967026 1.190815982678641 1.118644223632975  3.875476295291937 1.062222539712173 1.205999382654284  4.93897113169396 1.004454728821652 2.440964619154312  4.944373789905133 0.9434222438092346 2.449258716097067  4.949692413080135 0.8823918763091562 2.45757839268525  4.954988534475828 0.821364401887783 2.46590583144576  4.960301534082635 0.7603446175691855 2.474240398399482  4.965681043792663 0.6993367193207191 2.482583405319361  4.971212038161876 0.6383528002273703 2.490924242488059  3.931384185579722 0.8788489517845079 2.269277461840837  3.934853732870828 0.8168314077298016 2.268140079409075  3.938025816267789 0.7548270075268482 2.266937152418935  3.941082406749591 0.6928566512806935 2.265709380946921  3.944108591831451 0.6309396982172586 2.264487547064653  3.947199608984421 0.5691007256898047 2.263298493046625  3.950573783023528 0.5073488447974873 2.262157223187465  3.946161678688427 1.183195538718975 1.571823017859951  3.94569394352428 1.141390241066857 1.527342501203334  3.945067555755165 1.099642880788658 1.482948583815598  3.944377640096496 1.057947176211901 1.438614872092079  3.943685491372498 1.016305750223212 1.394340395590899  3.943052176557297 0.9747283375507181 1.350134610432392  3.942563679263019 0.9332227303812777 1.306017735149674  4.373168990102489 1.121489308479208 1.650696979343016  4.288042321442452 1.076787951333193 1.722281432664663  4.289897545473065 1.023551699772145 1.691555980414981  4.374753217155354 1.069616675830414 1.617501733384014  4.376200832489783 1.017757042232295 1.584324308861573  4.291581801422145 0.97032541198374 1.66085172853932  4.377591528487701 0.9659151056785189 1.551161653444032  4.293189241303046 0.9171210772265124 1.630165575771062  4.378987317857445 0.9140980031041192 1.51801933635472  4.294797498540136 0.8639419403816828 1.599495954359295  4.380447265740653 0.8622958026252041 1.484897496266326  4.296485203740894 0.810793453273881 1.568842632269493  4.382055378855101 0.8105144767842236 1.451805187065364  4.29833206150006 0.7576899593462 1.538222048722177  3.609020333877362 1.089431160310864 1.646877700509581  3.745923092420404 1.0697886137274 1.683446477915756  3.661889892282213 1.00979745510534 1.753414243587779  3.668384182841662 0.9569009097456685 1.718041303760995  3.750532016761486 1.021252238188824 1.643836035588222  3.614817939520218 1.043392198029978 1.603432960652546  3.620656845237639 0.9974605208249852 1.560045366238606  3.755063621864534 0.9728245257426337 1.604282380402585  3.67
[...]
<PointData  Vectors="f_16"> 
<DataArray  type="Float64"  Name="f_16"  NumberOfComponents="3" format="ascii">1.2403454802255316e-02 -6.7836799748863197e-02 1.6372179720315124e-02  1.1148722963538221e-02 -6.6731694348464085e-02 1.4787875084930412e-02  1.1769308434413544e-02 -7.3879929596928989e-02 2.1485497775216772e-02  1.0794498726353265e-02 -7.2856586880477137e-02 1.8457714547918808e-02  1.0300293659546104e-02 -6.5067478407564355e-02 1.2473009694262991e-02  1.1458477369109810e-02 -6.6373829467711115e-02 1.3875074834958496e-02  1.0519150326665975e-02 -6.5216748264792276e-02 1.1550906872074990e-02  9.4481347600149940e-03 -6.3780910290466855e-02 1.0315527118105031e-02  9.8207981122332873e-03 -7.2051758915826089e-02 1.5694769562486888e-02  8.8687625519776603e-03 -7.1427205522954548e-02 1.3056807213951379e-02  8.6144923104418767e-03 -6.2794459037937581e-02 8.2216980767428512e-03  9.6013862338018719e-03 -6.4310130078153685e-02 9.3037462120780200e-03  7.9287093467651434e-03 -7.0961703041222207e-02 1.0414866707051442e-02  7.7966448395193119e-03 -6.2060196841496620e-02 6.1098712070411718e-03  8.6922552969615260e-03 -6.3621814187306919e-02 7.0536152855948612e-03  6.9980561246976653e-03 -7.0654441381246769e-02 7.6729605077358225e-03  6.9895934973566408e-03 -6.1547591888366400e-02 3.9196782967459796e-03  7.7925252599986925e-03 -6.3133956885260648e-02 4.7315462472213759e-03  6.0790467336343220e-03 -7.0513280243467938e-02 4.7589974297827329e-03  6.1898068725617858e-03 -6.1240357951454105e-02 1.6033071053299089e-03  6.9016806236555381e-03 -6.2841262061289316e-02 2.2837316530184316e-03  2.1310867533213134e-02 -4.9424385835500802e-02 -5.1061059056155343e-02  1.9477225836883948e-02 -4.8732072516547015e-02 -4.4556849992982255e-02  1.9809472914991706e-02 -4.7307548252100665e-02 -3.9234352320779133e-02  2.0717874942467455e-02 -4.8368206183891718e-02 -3.6465731704384052e-02  2.0527350498015996e-02 -5.0183659665659797e-02 -4.2227242688324673e-02  2.2442456375354001e-02 -5.1205236319913840e-02 -4.8875444250941404e-02  2.1946400938077482e-02 -4.9545012462796217e-02 -3.3948241727694485e-02  2.1867452503000508e-02 -5.1656097813290183e-02 -4.0062606092499349e-02  2.3845999404993878e-02 -5.2933953768946856e-02 -4.6797211187166780e-02  2.3120173150377551e-02 -5.0756920666166973e-02 -3.1688436344374994e-02  2.3171860586394720e-02 -5.3045024817322158e-02 -3.8051893591697319e-02  2.5210808094712437e-02 -5.4505485999534906e-02 -4.4839952792581537e-02  2.4267159717948683e-02 -5.2109425736605652e-02 -2.9531418899927532e-02  2.4457483761039716e-02 -5.4476517225809089e-02 -3.6066485562474541e-02  2.6554704016545080e-02 -5.6060929898481868e-02 -4.2875135051643046e-02  2.5433082527636239e-02 -5.3701893064904922e-02 -2.7349337085383008e-02  2.5768282635739399e-02 -5.6088586693877666e-02 -3.3989970767221815e-02  2.7913829368367702e-02 -5.7731279318413868e-02 -4.0769768512958146e-02  2.6655277873923727e-02 -5.5647733481921070e-02 -2.5018660776358666e-02  2.7169895076953245e-02 -5.8026644407258604e-02 -3.1725884159077095e-02  2.9329831489600836e-02 -5.9607395610131002e-02 -3.8435324578620957e-02  2.0520975836641722e-02 -4.5483224565206266e-02 -4.4047715840306641e-03  1.9611198531964830e-02 -4.6266046905646480e-02 -5.5745813418527192e-03  1.9230975855887546e-02 -4.8380485895283626e-02 2.4665101339764841e-04  1.8301206687043048e-02 -4.6465758234325631e-02 -4.3962200285196544e-04  1.8955780005558021e-02 -4.4428097736017261e-02 -5.2332084337813802e-03  1.9812525704527077e-02 -4.3531592829689443e-02 -4.4394861056007619e-03  1.7454160101270998e-02 -4.5192211558418516e-02 -1.1754897874870498e-03  1.8373110663287742e-02 -4.3037433071132739e-02 -5.0966528781671537e-03  1.9172919076567322e-02 -4.2100600295701653e-02 -4.5849463914260360e-03  1.6679739979747914e-02 -4.4336188958126473e-02 -1.9308566667812881e-03  1.7875918846988612e-02 -4.2086211167880881e-02 -5.0422942954222996e-03  1.8596958271609596e-02 -4.1120684907447379e-02 -4.7706839089142420e-03  1.5946093755891892e-02 -4.3811588900770596e-02 -2.7351339176753240e-03  1.7434703333146246e-02 -4.1531520363143587e-02 -5.0630837323487393e-03  1.8068775695828734e-02 -4.0532086510615614e-02 -5.0137261221426133e-03  1.5220642589984200e-02 -4.3584064265487561e-02 -3.6267938152682020e-03  1.7015991897935102e-02 -4.1323692554153850e-02 -5.1645296295565364e-03  1.7560553425271033e-02 -4.0297860518725609e-02 -5.3438745159029907e-03  1.4460159094480304e-02 -4.3629574877147637e-02 -4.6331780737160957e-03  1.6578388530245174e-02 -4.1423128176108083e-02 -5.3534620023480512e-03  1.7024876780215775e-02 -4.0413553557134003e-02 -5.7932554640430685e-03  1.6778424637772040e-02 -5.1580197535990559e-02 3.2128012577090098e-04  1.6787425080481300e-02 -4.9082154428889913e-02 -5.3700136183985545e-03  1.5943408922145408e-02 -5.1722910722486207e-02 -6.0778438181543224e-04  1.5230248971846690e-02 -4.9901920129916670e-02 -9.3417900881735563e-04  1.6246883159489918e-02 -4.7300853978020745e-02 -5.0011131462504473e-03  1.5951115919488407e-02 -4.9776577607480992e-02 -1.6423364718262201e-04  1.4601921922222845e-02 -4.8525915019497143e-02 -1.1824529617982971e-03  1.5798512992112091e-02 -4.5989621374813251e-02 -4.6658155326490388e-03  1.5228055929195558e-02 -4.8385908332603450e-02 -6.2575046121688923e-04  1.4022657131279030e-02 -4.7522799222049883e-02 -1.4683989508545035e-03  1.5408132006015358e-02 -4.5083922929943503e-02 -4.4028186425259996e-03  1.4568212876079824e-02 -4.7362883095393049e-02 -1.1087244220399036e-03  1.3467832021433746e-02 -4.6845552502280487e-02 -1.8407741461341656e-03  1.5045877324534770e-02 -4.4529205669870120e-02 -4.2386832887697885e-03  1.3944571033673352e-02 -4.6668745126310585e-02 -1.6593774118125904e-03  1.2913792177826249e-02 -4.6458531143950099e-02 -2.3357868551581945e-03  1.4685954146971643e-02 -4.4286906766970592e-02 -4.1936043734219662e-03  1.3330334920899099e-02 -4.6271691285729027e-02 -2.3128355148545410e-03  1.2339043456946549e-02 -4.6335007852479973e-02 -2.9901977317682038e-03  1.4299959577133588e-02 -4.4333906666251630e-02 -4.2877089886573880e-03  1.2691898781349988e-02 -4.6135931755959647e-02 -3.0957599715098496e-03  1.8511401598503254e-02 -4.6309084637106840e-02 -2.8920497963150910e-02  1.8175662614696990e-02 -4.7371049949463021e-02 -3.5400549001084677e-02  1.7191513698319942e-02 -4.6902467793760776e-02 -2.7886628108927839e-02  1.7970916162741987e-02 -4.6972733154804519e-02 -2.5127234071384601e-02  1.8966652008886035e-02 -4.8201748565048691e-02 -3.2728486509322890e-02  1.9332525973148731e-02 -4.6405000372380517e-02 -2.6017888622438843e-02  1.8815182157492536e-02 -4.7332442228332397e-02 -2.2753710253876788e-02  2.0142415340653433e-02 -4.9166908142061400e-02 -3.0334202358311420e-02  2.0173150152590462e-02 -4.6785307831321392e-02 -2.3598267442686709e-02  1.9618544438891890e-02 -4.7933345695056848e-02 -2.0646499569795741e-02  2.1264753285336495e-02 -5.0216757361129183e-02 -2.8220250707578116e-02  2.0979575470074008e-02 -4.7422940919137936e-02 -2.1431237020808427e-02  2.0404539226787470e-02 -4.8773421045262833e-02 -1.8683968173680301e-02  2.2349823739663967e-02 -5.1423188006056379e-02 -2.6216325349243300e-02  2.1773594600739694e-02 -4.8314292445375794e-02 -1.9399534357629703e-02  2.1195905216858251e-02 -4.9886613449647843e-02 -1.6780028212302185e-02  2.3439957735277159e-02 -5.2870900189048914e-02 -2.4193086659805515e-02  2.2566938361723150e-02 -4.9491231667587898e-02 -1.7423812707987384e-02  2.2018727524895129e-02 -5.1301507717607386e-02 -1.4886854020832766e-02  2.4546762124803022e-02 -5.4660926412460530e-02 -2.2063335794186126e-02  2.3363012736612659e-02 -5.0987644140289244e-02 -1.5447590989397835e-02  2.3835350662571263e-02 -4.1640025793859871e-02 -6.2391544770147691e-03  2.2376936026905988e-02 -4.4951282214889567e-02 -3.2944866990603021e-04  2.3124612027532767e-02 -4.4863809556857849e-02 1.6979049782523592e-03  2.1297652105580298e-02 -4.3241005289893525e-02 -1.4717187507905787e-03  2.2834948636379224e-02 -3.9751976907598456e-02 -6.4565768729596268e-03  2.1883723868926792e-02 -4.3431522188014687e-02 1.7882685282989442e-04  2.0304584490927969e-02 -4.2035125671252067e-02 -2.3022860216759984e-03  2.1953603290185086e-02 -3.8431699609595374e-02 -6.5329552385538139e-03  2.3490091518455648e-02 -4.8533852237849957e-02 -5.1755727607839301e-02  2.3129051776059638e-02 -5.0351728587481361e-02 -5.7935198879967759e-02  2.1700743163137477e-02 -4.7779128923355799e-02 -4.5129343663766308e-02  2.2676739568411066e-02 -4.9259825116876342e-02 -4.2380175373366039e-02  2.4338468294722835e-02 -5.2428428245577217e-02 -5.5953857810670228e-02  2.4520246808459926e-02 -5.0393585658245511e-02 -4.9094573228525402e-02  2.3985935087975769e-02 -5.0805682455243202e-02 -3.9818865392740314e-02  2.5761494460569644e-02 -5.4358311989272358e-02 -5.4045972108405671e-02  2.5831424649806187e-02 -5.2235739828170591e-02 -4.6591273566714803e-02  2.5228028087518596e-02 -5.2288964280061634e-02 -3.7495483197867586e-02  2.7138530260764852e-02 -5.6055319200368811e-02 -5.2196436841836093e-02  2.7129545274982750e-02 -5.3979795553455161e-02 -4.4254600563018984e-02  2.6455175224520452e-02 -5.3869678119135699e-02 -3.5240416514437205e-02  2.8502848073904307e-02 -5.7675088311542631e-02 -5.0298206468845842e-02  2.8405306524317067e-02 -5.5745668685653969e-02 -4.1958473192442190e-02  2.7708928459386231e-02 -5.5667608560798949e-02 -3.2909377817845149e-02  2.9874999855703716e-02 -5.9316419911104999e-02 -4.8275348380672989e-02  2.9698242569085032e-02 -5.7677169332176863e-02 -3.9552535818146085e-02  2.9047944724339171e-02 -5.7825015375667026e-02 -3.0354889364867858e-02  3.1247214737479562e-02 -6.0931266826443523e-02 -4.6034139056453191e-02  3.1019956485706546e-02 -5.9916158241506486e-02 -3.6930273091604349e-02  1.2858209345711615e-02 -7.3418762695242848e-02 2.1587792779228371e-02  1.1778599979516118e-02 -7.2485258461004703e-02 1.8637452827312943e-02  1.0736455770317335e-02 -7.1719593775472046e-02 1.5925300800263543e-02  9.7132031977816401e-03 -7.1111868349482951e-02 1.3336099291693358e-02  8.7035095677413573e-03 -7.0654010956947261e-02 1.0746784851952408e-02  7.7033308558868419e-03 -7.0346164998189686e-02 8.0677284699774716e-03  6.7126664850960267e-03 -7.0188917571275156e-02 5.2297546285846250e-03  2.0312016894230525e-02 -4.8564695580380977e-02 2.4035904214064641e-03  1.9307556146619012e-02 -4.6801647904130973e-02 1.1520755913843903e-03  1.8360694249555314e-02 -4.5522545713441304e-02 3.9803273592334448e-05  1.7458053111617428e-02 -4.4634914599300850e-02 -1.0150631078204336e-03  1.6591940938540391e-02 -4.4073763308278321e-02 -2.1008650850821843e-03  1.5740754294177411e-02 -4.3809825855097087e-02 -3.2845426516444516e-03  1.4870635044096452e-02 -4.3839838600565242e-02 -4.6172540609185396e-03  2.2156857601335553e-02 -4.6393771082955865e-02 -4.1047184239068370e-02  2.3089678803582502e-02 -4.7574637177976310e-02 -3.7935757412939475e-02  2.4259065048666612e-02 -4.8827456873247424e-02 -3.5214133896228683e-02  2.5377538161966962e-02 -5.0162447006290210e-02 -3.2776100193929736e-02  2.6486158462862744e-02 -5.1670585969684324e-02 -3.0436863884896574e-02  2.7623514572515398e-02 -5.3443855598135089e-02 -2.8061606047433584e-02  2.8838638549619860e-02 -5.5592377073009118e-02 -2.5561379771617512e-02  1.7247535827832724e-02 -4.6600224143648172e-02 -2.2685363450497015e-02  1.8103944260278892e-02 -4.6049887921413846e-02 -2.0024259068706255e-02  1.8390170801386326e-02 -4.5153412793966154e-02 -1.7770065814202329e-02  1.7736546749814036e-02 -4.6039457786607452e-02 -2.0166784732325024e-02  1.8245018512274301e-02 -4.5847885411941437e-02 -1.7958767597650034e-02  1.8697952808049423e-02 -4.4666409654112088e-02 -1.5817630700892937e-02  1.8754312240703636e-02 -4.5986371900233781e-02 -1.6017907541297810e-02  1.9029696040877828e-02 -4.4563368988166291e-02 -1.4085619261082939e-02  1.9258560367298692e-02 -4.6424167222955101e-02 -1.4252358224493115e-02  1.9373423432867101e-02 -4.4794309870347264e-02 -1.2511959253502960e-02  1.9765248471786144e-02 -4.7153292549287067e-02 -1.2599222686792592e-02  1.9722062060120331e-02 -4.5338180971970087e-02 -1.1049222952439541e-02  2.0262260321514108e-02 -4.8171735925956208e-02 -1.1019243840878710e-02  2.0067934024166470e-02 -4.6210418597927717e-02 -9.6773964433448864e-03  2.5872933125683416e-02 -4.4590511574981263e-02 -4.1596713919800507e-02  2.4010455369432367e-02 -4.3962907285864550e-02 -3.5273895916594016e-02  2.4718992546783239e-02 -4.2614402833958467e-02 -3.1024154097650813e-02  2.5151834181898532e-02 -4.2456818978959907e-02 -2.7652484254126437e-02  2.4765603695414074e-02 -4.4385979352624914e-02 -3.1790260760463124e-02  2.6751648168542683e-02 -4.5671828381435860e-02 -3.7906364693060739e-02  2.7662577397146313e-02 -4.6882204799587289e-02 -3.4714230396345004e-02  2.5520376452395709e-02 -4.5084662920297981e-02 -2.8823852996302066e-02  2.5626210770650679e-02 -4.2677101192092157e-02 -2.4735701485598366e-02  2.8571679806691740e-02 -4.8243730321296363e-02 -3.1810395532019878e-02  2.6285654040127986e-02 -4.6015974678163339e-02 -2.6145963924621072e-02  2.6152784613886131e-02 -4.3222389537960156e-02 -2.2110487821398420e-02  2.7086920612147038e-02 -4.7210612359871972e-02 -2.3608931319141647e-02  2.9515275808893432e-02 -4.9819950681846567e-02 -2.9037122575688707e-02  2.6749851112315249e-02 -4.4090026271972886e-02 -1.9661721770380065e-02  3.0534996333491368e-02 -5.1689017070189060e-02 -2.6270901234627782e-02  2.7941172664082789e-02 -4.8719718708217598e-02 -2.1123638934116295e-02  2.7430163912915851e-02 -4.5288410071973845e-02 -1.7309669873724967e-02  3.1664142351477124e-02 -5.3934892665997755e-02 -2.3452389810966728e-02  2.8892480384132974e-02 -5.0596746232749894e-02 -1.8628803843276039e-02  2.8198757189807081e-02 -4.6810376135889412e-02 -1.4975673703265640e-02  9.7895344610830475e-03 -7.7787371267283162e-02 1.6332297807550279e-02  8.8996741564642424e-03 -7.5811422541588805e-02 1.3816864386883254e-02  9.4563604892931585e-03 -8.2215637766137745e-02 1.9149319696494846e-02  8.6028422719633783e-03 -7.7693598637561895e-02 1.3647430496194940e-02  7.8242727002018880e-03 -7.5667697991704128e-02 1.0996535653296726e-02  8.3212854295903818e-03 -8.2247807644623860e-02 1.6464483330319277e-02  7.4266542770291995e-03 -7.7725099056634717e-02 1.0673874650929924e-02  6.7538961879263651e-03 -7.5691013880651636e-02 7.9717038081774730e-03  7.1797461648537919e-03 -8.2323223261462408e-02 1.3406342402737121e-02  2.1406698043654415e-02 -4.5415493099310603e-02 -1.7936401748278889e-03  2.0456638041668362e-02 -4.3511354641598214e-02 -2.4872902008702975e-03  1.9618004581089615e-02 -4.2191153244921904e-02 -3.0528043354286646e-03  1.8835996099592800e-02 -4.1293889170790736e-02 -3.5989109240176539e-03  1.8099866174591611e-02 -4.0757722447447978e-02 -4.1943733912884109e-03  1.7399075608392264e-02 -4.0554972869507433e-02 -4.8966884942689588e-03  1.6742054796263783e-02 -4.0701023594233242e-02 -5.7551544158759554e-03  1.8044465136693447e-02 -6.8838108724653096e-02 2.2276949632602835e-02  1.6949104788693822e-02 -6.9985782573583191e-02 2.1869354784048344e-02  1.7192968781376688e-02 -7.4795185971977249e-02 2.6325991159964250e-02  1.5593500515508387e-02 -6.9606574565400245e-02 1.9177849517056311e-02  1.6639874709446591e-02 -6.8721717536964294e-02 1.9719977413881300e-02  1.7779968675353933e-02 -4.8755226924699670e-02 -4.1779272755919656e-03  1.7083281890936785e-02 -4.6952451217356334e-02 -4.0431025303907025e-03  1.6501381814192397e-02 -4.5606343921776961e-02 -3.9125239058517905e-03  1.5988561850947505e-02 -4.4660079022895587e-02 -3.8445283181059971e-03  1.5516776431611212e-02 -4.4065742461940539e-02 -3.8704749568217382e-03  1.5059844859002877e-02 -4.3785811190116521e-02 -4.0124448876694549e-03  1.4597716383705703e-02 -4.3805643565635814e-02 -4.3003254825849458e-03  2.3314440974696878e-02 -3.9055416282092727e-02 -4.9840063255253732e-03  2.2220165398425099e-02 -3.7973028385880514e-02 -5.4582092635766938e-03  2.9668994647621565e-02 -4.8589079345528786e-02 -5.8992414574703923e-02  2.7700082563075958e-02 -4.6848786634522702e-02 -5.1726682210501335e-02  2.8072786001230882e-02 -4.5077397923639455e-02 -4.5810229573438145e-02  2.8913281393911468e-02 -4.6556466056437658e-02 -4.2006465621564744e-02  2.8572616577537430e-02 -4.8845213700792874e-02 -4.8360570265060597e-02  3.0576022381008029e-02 -5.1083525603846214e-02 -5.5944972912350309e-02  2.9872002379617950e-02 -4.8119364226510856e-02 -3.8627969178479438e-02  2.9727702697768567e-02 -5.0814736093001980e-02 -4.5238729756535312e-02  3.1773516827058229e-02 -5.3472713491288217e-02 -5.3014168864705245e-02  3.0812221522372372e-02 -4.9797653681851135e-02 -3.5554833283112125e-02  3.0856066622031723e-02 -5.2759536358840758e-02 -4.2384038632416007e-02  3.2953864164959740e-02 -5.5735018861140399e-02 -5.0261564637127741e-02  3.1794507801438769e-02 -5.1659588369984404e-02 -3.2600731979819580e-02  3.1983601765694709e-02 -5.4807171505505438e-02 -3.9614501028434300e-02  3.4108289705089341e-02 -5.8006350040165237e-02 -4.7560916449700660e-02  3.2858568061714367e-02 -5.3786115481811794e-02 -2.9635932877886066e-02  3.3151071864683954e-02 -5.7074921878305165e-02 -3.6783098715342598e-02  3.5265945709385252e-02 -6.0416077511809822e-02 -4.4759550789508565e-02  3.4049892478986737e-02 -5.6277660986487156e-02 -2.6571005510695710e-02  3.4407849491604602e-02 -5.9654970331839245e-02 -3.3777897408580622e-02  1.4082290849684393e-02 -7.3839377815641205e-02 2.2657515209403286e-02  1.3342787295094496e-02 -7.7210395412340413e-02 2.4994625564372690e-02  1.4643009316942974e-02 -7.8366231494301206e-02 2.6823261174141681e-02  1.2916367597792619e-02 -7.3071816736400952e-02 1.9685747222167458e-02  1.2188864924590447e-02 -7.6751887129532959e-02 2.1913035096404597e-02  1.3393790092282681e-02 -7.8234747513925174e-02 2.3875814904442634e-02  1.2177409353092182e-02 -7.8093821043476924e-02 2.1292315814955543e-02  1.1076857080352083e-02 -7.6382669861837199e-02 1.9139208678976449e-02  1.1774392187165295e-02 -7.2426841470676545e-02 1.6988985278222905e-02  1.0979567509525466e-02 -7.7935587755561531e-02 1.8835896961807933e-02  9.9831957704475532e-03 -7.6063966739446431e-02 1.6494696246402946e-02  1.0660173436890271e-02 -7.1896974407902409e-02 1.4427453886438421e-02  9.5619226866793094e-03 -7.1481456062861534e-02 1.1866690850724112e-02  8.4711826457124009e-03 -7.1187662569212620e-02 9.2063590086688945e-03  7.3875550722249618e-03 -7.1003663542928308e-02 6.3811951957329915e-03  1.7665530859954006e-02 -6.4730666392897984e-02 1.7755064783663191e-02  1.6306764479598182e-02 -6.4018656856442563e-02 1.5192651852661703e-02  1.5001176210510706e-02 -6.3446499704725504e-02 1.2910851290739088e-02  1.5251176158042199e-02 -6.8537958675583252e-02 1.7499841908509402e-02  1.4278903482636615e-02 -6.9271093488764590e-02 1.6801833281870675e-02  1.3735654126232538e-02 -6.2993519448773197e-02 1.0761555027341474e-02  2.3946707790785789e-02 -4.6890423448390214e-02 -4.6359332572935306e-02  2.4896744826386777e-02 -4.8442022450117861e-02 -4.3255444478637384e-02  2.6108441418813640e-02 -5.0021297927379811e-02 -4.0403070391137927e-02  2.7285042759378493e-02 -5.1605535835496943e-02 -3.7808202370127830e-02  2.8452263550213193e-02 -5.3315186196327566e-02 -3.5305923391333927e-02  2.9656878261685986e-02 -5.5260013011313391e-02 -3.2740666093412640e-02  3.0906599109142788e-02 -5.7574331621450571e-02 -3.0033993469261687e-02  2.6362624146572429e-02 -4.3018841299034050e-02 -3.6683781340104409e-02  2.6944802622763230e-02 -4.3427264579325789e-02 -3.2958713153827215e-02  2.7546490095523769e-02 -4.4076381156299894e-02 -2.9679777765398003e-02  2.8198515526943441e-02 -4.4990966126494905e-02 -2.6723926217853123e-02  2.8919991375540351e-02 -4.6186095340808371e-02 -2.3950553050925416e-02  2.9739473268177184e-02 -4.7691227951261315e-02 -2.1256697317447948e-02  3.0698622809625889e-02 -4.9549184984881312e-02 -1.8579760034111242e-02  2.1873216340567984e-02 -4.3376089951547667e-02 -8.0363519856805933e-03  2.1176394380641519e-02 -4.1483213066896521e-02 -7.5877184687339052e-03  2.0602712685597234