<?xml version="1.0"?>
<VTKFile type="UnstructuredGrid"  version="0.1"  >
<UnstructuredGrid>
<Piece  NumberOfPoints="933" NumberOfCells="3996">
<Points>
<DataArray  type="Float64"  NumberOfComponents="3"  format="ascii">6.85927697485309 1.705631814807317 3.415777548643188  6.755979634133197 1.720516645470522 3.472960851723151  6.774640884423053 1.643437565701409 3.325026362984295  6.783237683439181 1.58851841230229 3.354206937947657  6.764982585255471 1.664476040624427 3.50412782346661  6.86838480599726 1.64973649251708 3.446396731212062  6.791875312796977 1.533598810987243 3.383342243258619  6.774017176661497 1.608432742029222 3.535253743442545  6.877530167307456 1.59384078344394 3.476968020960036  6.800539659777367 1.478684862846354 3.412441623388902  6.783072786523706 1.552390512893722 3.566345828666686  6.886697185428003 1.537949008593301 3.507501560500287  6.809217470306116 1.423777819257498 3.441515301256769  6.792136486827943 1.496350121491264 3.597409654397752  6.895872814956575 1.4820635461706 3.538006724692418  6.81789826041013 1.368876496622784 3.470571445183738  6.801196811743074 1.440309907097983 3.628447865236347  6.905045419139202 1.426182932729065 3.568491199194649  6.826580558984052 1.313975444399499 3.499613122680349  6.810251312120212 1.384272544157899 3.659457784145582  6.91419985259742 1.370300356637983 3.598959099891629  6.922849954344042 1.515369999233821 3.037944157662339  6.822895803690695 1.521314061370262 3.080370089301905  6.864060687842186 1.456588252250405 2.953375343635163  6.873766394529201 1.403476554501645 2.983646325744158  6.831980885317869 1.468117764281875 3.109624240646931  6.931928917858954 1.461728608925128 3.067336497354194  6.883537083679422 1.350364282090402 3.013841386199951  6.841124178219464 1.414919677169152 3.138817527842669  6.94106850115194 1.408086928881741 3.096657096976019  6.893341268838345 1.29726248451328 3.043985510933136  6.85030092551171 1.361728857563416 3.167966021716765  6.950238599594964 1.354455157763663 3.12592499215103  6.903150401668 1.244178273289527 3.074106434849339  6.859489818619156 1.308551611097121 3.197091251289118  6.95941373320454 1.300841774443105 3.155165967057411  6.912940200501258 1.191119732643149 3.104237730946874  6.868674185107411 1.255393787685109 3.226219092664391  6.968571964934531 1.247251948085013 3.184412231413023  6.922708329695618 1.138097665317629 3.134431081901669  6.877854759062106 1.202258306019394 3.255382280317952  6.977697785003233 1.193681395844586 3.213710276449535  6.701215934827885 1.506326944381693 3.09048242728125  6.621241254051949 1.536320208894643 3.170347868008209  6.602493066954372 1.459003276443078 3.038362961872296  6.611627705544473 1.407338873868859 3.068189647978773  6.630010937794522 1.483636263139645 3.199177300612288  6.7103360118106 1.453827981312601 3.119695430846401  6.620830415758601 1.355668733152867 3.097966725104373  6.638836764279573 1.430948544126064 3.227969002955318  6.719519857008538 1.40132512648945 3.148860505514656  6.630073922015664 1.304001458642186 3.127711317491729  6.647697591127049 1.378263794187946 3.256730979464025  6.728741111833766 1.348825706088097 3.177990183482887  6.639331593589816 1.252341215190803 3.157440173606721  6.656574377646432 1.325584787393846 3.285473827757358  6.737977852318735 1.29633497817846 3.207100731085631  6.64857748400157 1.2006919942942 3.187172109013833  6.665449757064536 1.272911952072019 3.314209032868822  6.747210431991824 1.24385606509869 3.236211524563613  6.657782175906089 1.149059785840874 3.216935875255573  6.674303689852258 1.220242736194854 3.342948901218341  6.75642111007504 1.191391625557787 3.265346419050365  7.292756227993745 1.300991715429311 2.408625508836266  7.284177267023757 1.324468177797491 2.52207737481427  7.181974771561969 1.297278564744588 2.479902748850964  7.190580282547489 1.235358274923346 2.494036321681926  7.292545508266485 1.264994375709299 2.541068123898997  7.301204514821936 1.239035292882871 2.419305040832407  7.199184897634241 1.173505694016763 2.508167253060124  7.300927635793002 1.205596691878193 2.560028298454286  7.309662289330936 1.177152462821939 2.430013151202469  7.207756946790779 1.111708451301573 2.522284102603933  7.309286989016273 1.146251884390441 2.578963971086933  7.318087063072966 1.115320212159839 2.440720483000406  7.216282835461029 1.049961150275544 2.536390486342949  7.317600037944199 1.086954278520713 2.597883241611036  7.326466550422058 1.053532761033975 2.451422135079984  7.22474152092977 0.9882648360248336 2.55048837526752  7.325837304447353 1.027712001785456 2.616790709235295  7.334780376813269 0.9917938594395702 2.462111506942326  7.233089724055974 0.9266141093006814 2.564560959901237  7.333999562160336 0.9685533526169448 2.635696109118987  7.342980390921398 0.9301045036009321 2.472787228585399  6.727594931546933 1.448049960560157 2.98053628313602  6.737004785304364 1.395826523043678 3.010715457371623  6.746475861921311 1.343596855284548 3.040827810171403  6.755985294552258 1.291372219336766 3.070899761007609  6.765507195829916 1.239158513924025 3.100954148590876  6.77502022648271 1.186962858642313 3.131017423988956  6.784520184855094 1.134805047654034 3.161129872947346  6.665308605699218 1.673728433410707 3.412903214577237  6.674223758415772 1.618392130984562 3.442652575324438  6.683183266128516 1.563057761623374 3.472365512081603  6.692169786331167 1.507724576420681 3.502048076407704  6.701168486022461 1.452392452621891 3.531704680712071  6.710165718262607 1.397059473983185 3.561337052245103  6.719144293692368 1.341723477824013 3.590940910746591  7.20171463712837 1.285402893763407 2.35799098593728  7.208049120836899 1.221858378789534 2.364395505738853  7.214310323970917 1.158357843813938 2.370849911129554  7.220519031127771 1.094898911687455 2.377316016779236  7.226682889858678 1.03147325803308 2.383783923990276  7.232805368767949 0.9680768670147351 2.390243348902491  7.238911718659836 0.9047237047037806 2.396667981232961  6.886749078296035 1.663021663201669 3.329200554728421  6.895584076052031 1.607544486037228 3.358700661611862  6.904460645640236 1.552071238140072 3.388146490047558  6.913360774399202 1.496604525271633 3.417552170281807  6.922271089258007 1.441146980696464 3.446930483767245  6.93117988359416 1.385700772113063 3.476292065505162  6.940071539373325 1.33025648363633 3.505644879655778  6.868039236042506 1.627144839378125 3.265893058908872  6.847231939289813 1.590237195757325 3.201127191731985  6.855913518894471 1.535961393492363 3.229768457080073  6.876595978864493 1.572088466762598 3.294525287951062  6.885194954930828 1.517037928986003 3.323103403699514  6.864645819584317 1.481689692716815 3.258353355191062  6.893820895353565 1.461994373515586 3.351640859251731  6.87340844687986 1.427424456995676 3.286897026674644  6.902458237430343 1.406961692932287 3.380152405027143  6.882184287299599 1.373170706708437 3.315415729623656  6.911093915434036 1.351941584040024 3.408652226119213  6.890959226092989 1.318930243570833 3.343928158708307  6.919719424080197 1.29692493120866 3.437147090196892  6.899723333790509 1.264698406905587 3.372448662464945  6.94905280902504 1.433097369387354 2.885296736216987  6.865091395701301 1.383511016291151 2.824489423750423  6.874815133369418 1.328419092406428 2.853201520300374  6.959024564825457 1.379174337900393 2.915452716775209  6.884597443898632 1.273338970136524 2.881837313526385  6.969071788376752 1.325261443888625 2.945524199301967  6.894405642391797 1.218278283606678 2.910425751514017  6.979149799290341 1.271365811171182 2.975539367229707  6.904209984860313 1.16324179403761 2.938996542779334  6.989221080080772 1.217492868973477 3.005529407271923  6.913987840421848 1.10823869864704 2.967584567767145  6.999250981277008 1.163648503636788 3.035532472736118  6.923759005640165 1.053281083684413 2.996235083370661  7.009217369232196 1.109835231499205 3.065609455931213  6.938382370453252 1.337067207090789 2.706360831972383  6.987697431193703 1.391203266295992 2.794641460532194  6.997653507592749 1.335963837436872 2.823842897218229  6.947729531486886 1.278638602109544 2.731697844570415  7.007691874315626 1.280738603450489 2.852957239809568  6.957079759156972 1.220240315077539 2.756969699033259  7.017750400938684 1.225534100543236 2.882016511371998  6.966428169123667 1.161876134332716 2.782198988928048  7.027792764919711 1.170355358999717 2.911053552304468  6.975762927147999 1.103547062029079 2.807411560844039  7.03778404207327 1.115203108409867 2.940109600785076  6.985087145332154 1.045259193924053 2.832634749197936  7.047673091130216 1.060066940177109 2.969247623203526  6.994452709383616 0.9869947668398238 2.857910280016985  6.809348647138408 1.259988516005918 2.53309452583414  6.77685753211586 1.284075539382721 2.633541364244772  6.677060894674963 1.251088968878199 2.587808869884199  6.687252764545717 1.190577689369599 2.605190546968829  6.786378015380012 1.224676580630341 2.655234292580887  6.818412007433365 1.19740842793528 2.547513086384563  6.697481930874289 1.130115231369834 2.622516143931275  6.795918695387256 1.165318026294252 2.676852633695235  6.827477007290726 1.13488392809218 2.56188734178641  6.707735756009765 1.069697767873222 2.639811555738397  6.805474397018862 1.105991913679405 2.698436414102977  6.836549710954078 1.072405707555141 2.576236619059733  6.717999571336413 1.009323401773825 2.65709684861203  6.815034637089737 1.046697607724988 2.720009112054304  6.845622498796734 1.00996852348281 2.590576200613845  6.728271702533951 0.9490127189750799 2.674384699702427  6.824606373302496 0.9874475604766005 2.741591901631119  6.854703108256134 0.9475795930580808 2.604916559286256  6.738584791678656 0.8888068926860043 2.691678477371031  6.834261936204999 0.9282894553260161 2.763208322516394  6.863904061381084 0.885263585370766 2.619272145889655  6.752174070868327 1.111006367166735 2.47585572232122  6.761827746427692 1.048082788565818 2.486009031330036  6.771492173523812 0.9851922503130159 2.496157856296596  6.781174158226453 0.922331924
[...]
<PointData  Vectors="f_16"> 
<DataArray  type="Float64"  Name="f_16"  NumberOfComponents="3" format="ascii">4.9574087079425578e-03 -9.8878594897032560e-02 3.1725662567332315e-02  5.3041152131343130e-03 -9.4330478710555013e-02 2.9781245169218973e-02  5.8175342886344454e-03 -1.0557907914196132e-01 3.6179374317223865e-02  5.8389737307500758e-03 -1.0380477923133306e-01 3.9705721880272368e-02  5.2636819576036302e-03 -9.1305637466689613e-02 3.4261447548398327e-02  4.9963548317679190e-03 -9.6240223030321037e-02 3.5939372386410311e-02  5.7902191198435597e-03 -1.0174130200269479e-01 4.2673833634928757e-02  5.1916388116163897e-03 -8.8278301171667559e-02 3.8153643483396282e-02  4.9667069831095161e-03 -9.3503909506938321e-02 3.9555287418511151e-02  5.6618425775070485e-03 -9.9340581534491518e-02 4.5297031872926198e-02  5.0857961829464246e-03 -8.5061526064119639e-02 4.1754747120713837e-02  4.8792051087314294e-03 -9.0547577038913002e-02 4.2850677896601165e-02  5.4789646901552917e-03 -9.6531435281661748e-02 4.7741681400206577e-02  4.8966843620750914e-03 -8.1552415130031877e-02 4.5263429827172096e-02  4.7362713371262022e-03 -8.7255123203216711e-02 4.6026531968764973e-02  5.2554430062429561e-03 -9.3215300950548002e-02 5.0167284931322775e-02  4.6675400899445097e-03 -7.7637555502362149e-02 4.8875658893823823e-02  4.5520756502498167e-03 -8.3513122610147872e-02 4.9267353376612047e-02  5.0146176719132220e-03 -8.9269162795644050e-02 5.2749095176770150e-02  4.4223484251556967e-03 -7.3193968929989847e-02 5.2819993337818470e-02  4.3417470990027183e-03 -7.9210485563754651e-02 5.2775326826359638e-02  4.6673392894262663e-03 -1.1487051211316139e-01 4.2776996664561147e-02  5.4635463593754284e-03 -1.1441938763730390e-01 4.2875966765182433e-02  4.5294058758343636e-03 -1.1417627219457561e-01 4.3453763895515418e-02  4.5990892627788974e-03 -1.1466876028497598e-01 4.3047658198787718e-02  5.4848688446807251e-03 -1.1430583012961740e-01 4.3898522994608953e-02  4.7199486257657759e-03 -1.1496144899913574e-01 4.3405220547074609e-02  4.5906970333269527e-03 -1.1455857790592996e-01 4.2616626292114670e-02  5.4950637948506702e-03 -1.1366126497208666e-01 4.4660925472962104e-02  4.7614899250794972e-03 -1.1449014755235254e-01 4.3824701333826058e-02  4.5074575262512226e-03 -1.1396953436690649e-01 4.2084463146561189e-02  5.4102614838291152e-03 -1.1254310987233163e-01 4.5206975479055590e-02  4.7132015883162215e-03 -1.1353328572550959e-01 4.4057749428016747e-02  4.3583268001677489e-03 -1.1299159020596052e-01 4.1329608822309648e-02  5.2534011426700481e-03 -1.1098272577698726e-01 4.5511299662169269e-02  4.5895324544572959e-03 -1.1214560670303760e-01 4.4053255914347500e-02  4.1482670631835371e-03 -1.1169372023811222e-01 4.0190719128724961e-02  5.0378641921499847e-03 -1.0896952282924548e-01 4.5517219320714133e-02  4.3944939155909747e-03 -1.1034243418674954e-01 4.3730575854714945e-02  3.8776451441416356e-03 -1.1013558976914020e-01 3.8441709218505524e-02  4.7755925658576606e-03 -1.0643560218380617e-01 4.5128196956466637e-02  4.1216475185362322e-03 -1.0806358218399845e-01 4.2961747080763266e-02  6.2472510893607754e-03 -1.1402952395658951e-01 4.3467132714281813e-02  6.9298199125717372e-03 -1.1245768154071134e-01 4.2314138149784124e-02  6.6074898936545993e-03 -1.1385517707120967e-01 4.4606838073080753e-02  6.5671574114746049e-03 -1.1407666754048572e-01 4.4957131580721364e-02  6.8453931117575572e-03 -1.1189677426098632e-01 4.4184727456823780e-02  6.2200792717975887e-03 -1.1392604162657820e-01 4.4499437702219272e-02  6.4702194115650027e-03 -1.1372254532262968e-01 4.5156649025878313e-02  6.7576542858274399e-03 -1.1085823991379506e-01 4.5675648991821687e-02  6.1813276365469023e-03 -1.1328609572087379e-01 4.5275211828890279e-02  6.2930743440033155e-03 -1.1288097085479196e-01 4.5196035097265386e-02  6.5815588522913715e-03 -1.0936519353651455e-01 4.6898689414835125e-02  6.0509242645812797e-03 -1.1217138938698448e-01 4.5835599976479534e-02  6.0517169284384983e-03 -1.1161582266582447e-01 4.5003679852396540e-02  6.3374434369778019e-03 -1.0741363134740207e-01 4.7885677850384140e-02  5.8535825516146068e-03 -1.1061554561303656e-01 4.6157178232729822e-02  5.7572487990974327e-03 -1.0995437174923335e-01 4.4467239082577478e-02  6.0367447246454766e-03 -1.0494991211888370e-01 4.8650738227790397e-02  5.6033824968009776e-03 -1.0860807074744126e-01 4.6184032758050463e-02  5.4130102979211290e-03 -1.0788549727597570e-01 4.3412337415713632e-02  5.6816077069918331e-03 -1.0186515183430031e-01 4.9192762303219624e-02  5.2925867305634467e-03 -1.0606732827686433e-01 4.5819017921529134e-02  -4.2377941655614825e-03 -9.4716350362296073e-02 2.5824548156132048e-02  -2.7815708637549093e-03 -1.0035639283394972e-01 3.0215453102595446e-02  -2.4354247928605609e-03 -9.7571430535492429e-02 2.8716380734364274e-02  -2.7703776894469488e-03 -9.7199413593288875e-02 2.5265882045770686e-02  -2.9399018481274138e-03 -1.0041276621965517e-01 2.6891593711468223e-02  -4.5245587809410320e-03 -9.4098546480665138e-02 2.2397934718570166e-02  -3.0277342898796522e-03 -9.6851139477199769e-02 2.2139610715204466e-02  -3.0367017468941214e-03 -1.0037192140154526e-01 2.3952284981116144e-02  -4.7492470433497611e-03 -9.3555169812753927e-02 1.9256576135928842e-02  -3.2651292971841374e-03 -9.6501053556440786e-02 1.9126825545683880e-02  -3.1245838950700439e-03 -1.0025202407112541e-01 2.1137111510890101e-02  -4.9514865199648513e-03 -9.3064345678447569e-02 1.6229778251675236e-02  -3.5163126601568096e-03 -9.6172883630744499e-02 1.6074584454637959e-02  -3.2344688354906271e-03 -1.0009439207957911e-01 1.8263851501598673e-02  -5.1577622661520299e-03 -9.2632274868120021e-02 1.3188188003629076e-02  -3.8039719461094215e-03 -9.5914093444643134e-02 1.2872567328610274e-02  -3.3905384609401513e-03 -9.9958335789103223e-02 1.5179971522742260e-02  -5.3899394789705740e-03 -9.2273528311304948e-02 1.0036235571116041e-02  -4.1408259099426168e-03 -9.5813839301750220e-02 9.4656443844262760e-03  -3.5960286238326603e-03 -9.9973034585074089e-02 1.1761371172320168e-02  -5.6736114877442151e-03 -9.1993543322746965e-02 6.7168883728221541e-03  5.5413992688242483e-03 -1.1393266898292641e-01 4.4193715943540740e-02  5.5612993004704086e-03 -1.1437225855383940e-01 4.3973224129445126e-02  5.5120358906166440e-03 -1.1422054258222848e-01 4.3706864442779381e-02  5.3831881629354261e-03 -1.1358494556506835e-01 4.3328629213789875e-02  5.1923276169334714e-03 -1.1255162215167638e-01 4.2730753090777243e-02  4.9522164611982000e-03 -1.1117988742471077e-01 4.1765040808448901e-02  4.6755037584341351e-03 -1.0951488767432371e-01 4.0202151188391343e-02  6.1540390618502134e-03 -9.9645248926280502e-02 3.3118518023712712e-02  6.1117540186740012e-03 -9.7200216397938313e-02 3.7267913888817644e-02  5.9825755060473737e-03 -9.4618600118395901e-02 4.0814362917431894e-02  5.8012432629185873e-03 -9.1781043442772450e-02 4.4031750864291452e-02  5.5620319637188533e-03 -8.8592958630619875e-02 4.7106401067625779e-02  5.2809166214469799e-03 -8.4936848391399727e-02 5.0236779324794784e-02  4.9744626674698162e-03 -8.0667562399945464e-02 5.3641460854406367e-02  -4.0078263600410212e-03 -9.1689155376001724e-02 2.4296738173885137e-02  -4.4181931089122307e-03 -9.0691916764252548e-02 2.0980817162806590e-02  -4.7611653558635387e-03 -8.9841216063951151e-02 1.7861647002825800e-02  -5.0685204042488071e-03 -8.9109897826733703e-02 1.4850430638134531e-02  -5.3720526202595941e-03 -8.8492100137641846e-02 1.1844962866710468e-02  -5.6982255960537319e-03 -8.7990151404161623e-02 8.7668653346300775e-03  -6.0681525291999558e-03 -8.7599820432823536e-02 5.5515026555235146e-03  5.0903459217252790e-03 -1.0508129061692660e-01 3.5263777714462249e-02  5.1637914723707285e-03 -1.0318327192724562e-01 3.8861956189067008e-02  5.1554353336361316e-03 -1.0101635702528960e-01 4.1912622794691906e-02  5.0736158925593659e-03 -9.8532882434878497e-02 4.4621498944670906e-02  4.9357594965254471e-03 -9.5654877178136755e-02 4.7158819522780906e-02  4.7542568801543644e-03 -9.2268968046006275e-02 4.9685003024455852e-02  4.5556640109101314e-03 -8.8305449939572872e-02 5.2398243260206888e-02  5.3538466785368367e-03 -1.0878309392452641e-01 3.7747335719103221e-02  5.5509590255450421e-03 -1.1164067019166088e-01 3.9962140648939597e-02  5.5736174049040264e-03 -1.1076285140769485e-01 4.2344319017659990e-02  5.4108736431133014e-03 -1.0741986111853588e-01 4.0790176753818845e-02  5.4111741998673166e-03 -1.0570814566899370e-01 4.3320061924206690e-02  5.5741124993385601e-03 -1.0944845441416738e-01 4.4280290068214545e-02  5.3291110095325797e-03 -1.0362035202382452e-01 4.5515615076731783e-02  5.4891541123758877e-03 -1.0771084926334579e-01 4.5912793366665101e-02  5.1849717421556599e-03 -1.0110738219456590e-01 4.7505575565733420e-02  5.3375991763049786e-03 -1.0552669526654106e-01 4.7321939388079451e-02  4.9980230701573460e-03 -9.8081045290710892e-02 4.9417153837118678e-02  5.1385600036976883e-03 -1.0282688395401474e-01 4.8576153774742441e-02  4.7936429384688147e-03 -9.4415951596900180e-02 5.1413348800375944e-02  4.9135092230262597e-03 -9.9488115197516699e-02 4.9736963291686982e-02  3.5178796184806853e-03 -1.1318910682268681e-01 4.2524287573715305e-02  3.5048374192866798e-03 -1.1094305731645453e-01 4.1731691121812346e-02  3.4804116002320547e-03 -1.1169059065848079e-01 3.9878729920354586e-02  3.5662156862729150e-03 -1.1389427652889267e-01 4.1412065514495201e-02  3.3862080005692468e-03 -1.1189159255115791e-01 3.8254294864876026e-02  3.5621378458362044e-03 -1.1398655048761901e-01 4.0411864774477356e-02  3.2409126307593726e-03 -1.1170218598103990e-01 3.6639761584982847e-02  3.4936248602231929e-03 -1.1362136383890305e-01 3.9367677547308959e-02  3.0477517853110510e-03 -1.1124400266791948e-01 3.4836569395185736e-02  3.3597652879332001e-03 -1.1291112001288445e-01 3.8116607567735182e-02  2.8138866985354242e-03 -1.1063652736684097e-01 3.2658573627044919e-02  3.1512695572589139e-03 -1.1196007839984436e-01 3.6473328804210184e-02  2.5620549705814041e-03 -1.1002181968561187e-01 2.9938446668710247e-02  2.8523197808465565e-03 -1.1091050122523081e-01 3.4217425455485784e-02  1.9239132664142502e-03 -1.0671930945718877e-01 3.7992010650296858e-02  2.4829611432711906e-03 -1.1061411588386863e-01 4.0671629439686552e-02  2.4663385533690331e-03 -1.1144620781283660e-01 3.8665098813720641e-02  1.7263527288983709e-03 -1.0729424684056806e-01 3.5167115250533447e-02  2.4147616458803992e-03 -1.1172152217251043e-01 3.6931455955359294e-02  1.5487159349160649e-03 -1.0748928522221933e-01 3.2715769018854021e-02  2.3206907634808114e-03 -1.1160419677707670e-01 3.5233388514523921e-02  1.3488970335199207e-03 -1.0742633244702869e-01 3.0341862389806819e-02  2.1723111396828058e-03 -1.1122444886027409e-01 3.3366255648939601e-02  1.1106513275845123e-03 -1.0721525999047732e-01 2.7828686278893119e-02  1.9551078791063955e-03 -1.1071178985369608e-01 3.1136410728554102e-02  8.2670459931889425e-04 -1.0697242493649055e-01 2.5010375569333179e-02  1.6451110338759939e-03 -1.1022165623482152e-01 2.8342954784542646e-02  5.1416648923209324e-04 -1.0685818137678332e-01 2.1780547071004960e-02  8.9233051220433189e-04 -9.7365595952663142e-02 3.1760436459463359e-02  2.1641938965788724e-03 -1.0206061579913095e-01 3.5741918473493138e-02  2.3305192966751758e-03 -9.8925978826503183e-02 3.3922082895528026e-02  1.8603494507428459e-03 -9.8833096287739342e-02 3.0487989391924486e-02  1.8330734371996369e-03 -1.0232603655951979e-01 3.2496616288551855e-02  4.1636306050484663e-04 -9.6988343206024341e-02 2.8223079939594598e-02  1.4355666396447186e-03 -9.8666623127870487e-02 2.7452430788193757e-02  1.5159063849833972e-03 -1.0240029722287418e-01 2.9667334196042675e-02  -1.3885125596765444e-05 -9.6619567705203815e-02 2.5049428076998535e-02  1.0268452433496670e-03 -9.8461430921924331e-02 2.4546234264941895e-02  1.1981981322294500e-03 -1.0234515565376812e-01 2.6969165350992187e-02  -4.2250085982608129e-04 -9.6263739321515412e-02 2.2013103203657337e-02  6.1773559823128971e-04 -9.8259370048207090e-02 2.1587409516330858e-02  8.7112361551911117e-04 -1.0222926612272565e-01 2.4195867658445325e-02  -8.2711694418261179e-04 -9.5949488305437619e-02 1.8943181731318426e-02  2.0037618270456379e-04 -9.8117421059228022e-02 1.8439382137998631e-02  5.3525191779081258e-04 -1.0213043517507488e-01 2.1182016943018436e-02  -1.2371087781916019e-03 -9.5717279029855107e-02 1.5718986633166489e-02  -2.1849435012544896e-04 -9.8116766214094722e-02 1.5011456287099432e-02  2.0095407300280526e-04 -1.0216810728903787e-01 1.7785108814521576e-02  -1.6496132490010005e-03 -9.5596016590829586e-02 1.2272340199785918e-02  -4.5177477911596039e-04 -9.1411448217577768e-02 2.2360864816065126e-02  -9.3395484327058343e-04 -9.0865267162927227e-02 1.9345823705372186e-02  -1.3983061194277602e-03 -9.0434014291915221e-02 1.6324243000770185e-02  -1.8618332799744894e-03 -9.0128304616415175e-02 1.3185805533404787e-02  -2.3388408445238328e-03 -8.9946168352459013e-02 9.8379340222172554e-03  -1.7927574643299357e-03 -1.1179560623587932e-01 3.7392651236421146e-02  -7.0011473461879900e-04 -1.1407359637214079e-01 3.9224721706921990e-02  -3.6904928651319781e-04 -1.1250993172178195e-01 3.8937248339299763e-02  -1.3315992742697082e-04 -1.1324687435322278e-01 3.7303395204635353e-02  -3.5160431822373858e-04 -1.1473007292891886e-01 3.8195467287685671e-02  -1.4676964990838551e-03 -1.1249626193113489e-01 3.5586968255353527e-02  4.7825843402591199e-05 -1.1345449550672668e-01 3.5841419231247208e-02  -7.1039665671508321e-05 -1.1482224070615286e-01 3.7239848120285690e-02  -1.1961518494748643e-03 -1.1270344147551743e-01 3.3970462310927034e-02  1.8213813978619684e-04 -1.1326699310725194e-01 3.4376354153754118e-02  1.5187681034525255e-04 -1.1448339969134518e-01 3.6240674382861326e-02  -9.7262136465142343e-04 -1.1254567680120003e-01 3.2362510228895518e-02  2.6065044558794086e-04 -1.1278217737542810e-01 3.2750204402934815e-02  3.2096556962994086e-04 -1.1380214811755286e-01 3.5073551610373718e-02  -7.9139696280314047e-04 -1.1211383144327650e-01 3.0604013090004625e-02  2.7631734431556168e-04 -1.1207742959295494e-01 3.0802027210036692e-02  4.3767499340344185e-04 -1.1284183908397759e-01 3.3598522634501603e-02  -6.4797113316792439e-04 -1.1148655925593932e-01 2.8539565723706466e-02  2.3131964441138310e-04 -1.1123824395533556e-01 2.8372893647723135e-02  4.9457840737727305e-04 -1.1164726639230453e-01 3.1630367378352675e-02  -5.3494220842883479e-04 -1.1079120762740657e-01 2.6031292016813926e-02  6.3363138846999735e-03 -1.1182161314921200e-01 4.0983840832807983e-02  6.3024035638318014e-03 -1.1103770176291225e-01 4.3216781520988720e-02  6.2567699282222245e-03 -1.0981408276707710e-01 4.5020883741223129e-02  6.1246203319816773e-03 -1.0815569515787467e-01 4.6527847950557956e-02  5.9258764392385206e-03 -1.0604456699709397e-01 4.7805882709158101e-02  5.6793221559447793e-03 -1.0341393323691510e-01 4.8907324817191594e-02  5.3946623885471057e-03 -1.0014586939986847e-01 4.9897875637507062e-02  -2.8377847856119031e-03 -9.1659210186749093e-02 2.5193118761751152e-02  -3.3504476553893581e-03 -9.0629828530023035e-02 2.1817693732431673e-02  -3.7747842589956368e-03 -8.9764163412617906e-02 1.8663153326100870e-02  -4.1587826923750746e-03 -8.9033231876411184e-02 1.5615424272462333e-02  -4.5349156739821379e-03 -8.8425559839221679e-02 1.2568668899660594e-02  -4.9291826387405004e-03 -8.7941518442671243e-02 9.4439336425726217e-03  -5.3739648000603732e-03 -8.7572847168006424e-02 6.1891223130449494e-03  -2.0615437253996417e-03 -1.0830334824432722e-01 3.5466867131244660e-02  -1.8946239463593095e-03 -1.0889455984534926e-01 3.2909791126964669e-02  -1.7506604192359528e-03 -1.0910699433337358e-01 3.0625808585609458e-02  -1.6362113843945397e-03 -1.0904823580498790e-01 2.8412258650177651e-02  -1.5582794551970034e-03 -1.0880496356888980e-01 2.6089026012529350e-02  -1.5247839157504879e-03 -1.0844953686052942e-01 2.3497408194039726e-02  -1.5384850016823715e-03 -1.0805143032743640e-01 2.0501664110128603e-02  2.7574498167698084e-03 -1.0614844851964400e-01 3.8761373696430679e-02  2.5575515353853237e-03 -1.0675272886303211e-01 3.5925928286821021e-02  2.3363631727714640e-03 -1.0697723197564613e-01 3.3477348596599246e-02  2.0946350259524104e-03 -1.0695122191468251e-01 3.1136046142558646e-02  1.8282192455562603e-03 -1.0678118972837825e-01 2.8684222969583058e-02  1.5409065814182814e-03 -1.0657069423095057e-01 2.5946997585356700e-02  1.2529172989996576e-03 -1.0640437315052144e-01 2.2760468246152570e-02  4.5356320043018249e-03 -1.1220921439953192e-01 4.3177849397838787e-02  4.5497954347794578e-03 -1.1293043513325969e-01 4.1892753872964199e-02  4.4697951797304965e-03 -1.1307491712218924e-01 4.0762861017295621e-02  4.3284324590103108e-03 -1.1277470654795015e-01 3.9601945249673275e-02  4.1363936051410921e-03 -1.1214725313336016e-01 3.8242781940331171e-02  3.9075468350359957e-03 -1.1130226399129695e-01 3.6504852050393617e-02  3.6613314545399620e-03 -1.1038374563197144e-01 3.4176231687664031e-02  1.6212517049121265e-03 -8.9152881878289222e-02 3.5066744281307696e-02  1.0419678988480994e-03 -9.2932105280181462e-02 3.5701553173197557e-02  1.8399128741304761e-03 -1.0047550806289048e-01 3.8723678285195885e-02  1.6231646481397308e-03 -1.0279076155105467e-01 3.5730886829899333e-02  1.2363723929052499e-03 -8.9865465851923454e-02 3.8872324749985095e-02  1.7569805848730315e-03 -8.5860136460295292e-02 3.8489414405746762e-02  2.0045748816808120e-03 -9.7878105283529040e-02 4.1398483938703559e-02  1.3684384103094444e-03 -8.6500564257751544e-02 4.1932493962289756e-02  1.8383910314881528e-03 -8.2297710478898195e-02 4.1825280387212879e-02  2.0998709872391288e-03 -9.4909510653749390e-02 4.3925304947270601e-02  1.4151508313192593e-03 -8.2731695087726417e-02 4.5069796854930490e-02  1.8453578453542403e-03 -7.8349173753476553e-02 4.5274921166308470e-02  2.1072317448991114e-03 -9.1483772440529548e-02 4.6467879202104621e-02  1.3504643162765958e-03 -7.8435716423710097e-02 4.8468384701066493e-02  2.0077789594371456e-03 -8.7523237945543314e-02 4.9208309348511191e-02  6.6816320623323431e-03 -1.0785889381885348e-01 3.8400835450639437e-02  6.6215993549633041e-03 -1.0643989095965567e-01 4.1506910687526266e-02  6.5200012537270941e-03 -1.0467303560848076e-01 4.4103791109310633e-02  6.3371053468756671e-03 -1.0252600040590806e-01 4.6370062512588260e-02  6.0952762336707808e-03 -9.9946557585744916e-02 4.8438221211217714e-02  5.8087279344349327e-03 -9.6839935799174812e-02 5.0434430320584818e-02  5.4873631728681272e-03 -9.3062221231092590e-02 5.2492238170238043e-02  -1.2489421723667826e-03 -9.7100721065975767e-02 2.9537428703039600e-02  -1.6802055052455164e-03 -9.6672113723988859e-02 2.6037113813268269e-02  -2.0295664805578006e-03 -9.6275436627111563e-02 2.2868353404089700e-02  -2.3511636863906842e-03 -9.5895747329249201e-02 1.9822975076427298e-02  -2.6802109562927951e-03 -9.5555237625507314e-02 1.6747327651168896e-02  -3.0415020612159283e-03 -9.5295339292188447e-02 1.3531664346034833e-02  -3.4487381291910717e-03 -9.5172777932738428e-02 1.0103495910048181e-02  4.5624084670315438e-04 -1.1514243816173815e-01 4.0244056722852452e-02  7.5333417244149168e-04 -1.1564145837160544e-01 3.9823054526701228e-02  9.8998369157359315e-04 -1.1556693624468531e-01 3.9374696366213713e-02  1.1638824237700839e-03 -1.1503447543958989e-01 3.8818766577004754e-02  1.2737954119403912e-03 -1.1411900983822212e-01 3.8070496166705922e-02  1.3152139558187997e-03 -1.1285984571084245e-01 3.7020493324591064e-02  1.2822673781876718e-03 -1.1126516459845139e-01 3.5538133298906038e-02  3.4061354475046408e-03 -1.0528411392968839e-01 3.8955554713631067e-02  3.1655562541980614e-03 -1.0589563453590786e-01 3.6092297816685388e-02  2.9003127904892343e-03 -1.0612348380775637e-01 3.3601288738967221e-02  2.6181745624411874e-03 -1.0611442300232905e-01 3.1223264768677764e-02  2.3172928020466369e-03 -1.0597409269565357e-01 2.8747351573114702e-02  2.0020802557604907e-03 -1.0579474874342203e-01 2.6000363156819150e-02  1.6831633381589877e-03 -1.0564786895519422e-01 2.2819802645829633e-02  -1.21089187