<?xml version="1.0"?>
<VTKFile type="UnstructuredGrid"  version="0.1"  >
<UnstructuredGrid>
<Piece  NumberOfPoints="931" NumberOfCells="3951">
<Points>
<DataArray  type="Float64"  NumberOfComponents="3"  format="ascii">6.397791301758152 2.431636428292702 0.9789209146794465  6.359100195725259 2.55852399384641 0.930853036232247  6.490759900755354 2.555750592865586 0.9303545729697634  6.487636620935438 2.534112714445409 0.8681240179432225  6.359579627090649 2.538781550145075 0.8683919668552917  6.39870687718155 2.407588164406428 0.9197221857719793  6.484463043078188 2.512412484120004 0.806070271723348  6.360059143496072 2.518972870378028 0.8060862391547905  6.399619596756936 2.383485867918646 0.8606745211530094  6.481255531719566 2.490670348983702 0.744173409848792  6.360531695452489 2.499120775935425 0.7439381442985865  6.400522894290213 2.359359180276407 0.8017885737765915  6.478035530807999 2.46893035912201 0.6824014872223551  6.36099905139127 2.479270887269859 0.6819171778555838  6.40142226546774 2.335242239939641 0.7430371386893613  6.474856186895607 2.447245105634996 0.6207368108758543  6.36148877482514 2.459472317015539 0.6200112085194742  6.402343445626413 2.311186027112399 0.6844058879090754  6.471802292262835 2.425687268546791 0.5591729732269181  6.362019995723365 2.43979319454933 0.5582167024192097  6.403306942696468 2.287273582770457 0.6259012696616246  7.265710871593158 2.028699415619498 1.080181509938484  7.154424053786584 1.999189660192914 1.110369026446491  7.213083577356434 2.122717654509046 1.037700169150654  7.20568980518121 2.09428788128828 0.982450704679547  7.145078804927564 1.969265247746307 1.056159032522505  7.258445685648654 1.999477898204909 1.02524995442615  7.197849574945541 2.065811251643989 0.9271597984935326  7.135273231378719 1.939266055804421 1.00201461622661  7.250741687486885 1.970161193834136 0.9702710283874519  7.189854721212983 2.037292279517957 0.8718326488782486  7.125285695845184 1.909234491569219 0.9478940005479379  7.242894407913056 1.940788414232399 0.9152512492570293  7.181901042577612 2.008735290479561 0.8164735353574606  7.115331940092511 1.879192452601333 0.8937673243331995  7.235098522055955 1.911375276650617 0.8601873978621158  7.174160169677406 1.980129585318944 0.761071722176457  7.105605237714195 1.849151872687635 0.8395956628160226  7.227515099590922 1.881923223737283 0.8050548603000819  7.166762810656818 1.951477574780643 0.7055745849501761  7.096276421034206 1.819121825831367 0.7853038000912642  7.220244302529994 1.852447154391085 0.7497658441568098  6.366586395423996 2.061530440976808 1.153164215797549  6.52806963598552 2.123123467033186 1.132478630526978  6.478333175533376 2.009110448860296 1.192871555650079  6.482429710708997 1.979414998253198 1.140156302438601  6.530094919520506 2.094267340208124 1.07830557374045  6.372338443277701 2.033520958317863 1.100057170229417  6.378196814065006 2.005485285194645 1.04711393047052  6.532110161217732 2.065397169568693 1.024324111655363  6.486567179932168 1.949736270312508 1.087671993555888  6.384114013670238 1.977474340757584 0.9943623172784719  6.534111686917257 2.036535690828228 0.970523964911235  6.490724329389269 1.920081423099535 1.035386961055582  6.390039595500721 1.949511559613327 0.9417634950023761  6.536099779936093 2.007704077877214 0.916887144399714  6.494886885067417 1.890463649439953 0.9832593689884199  6.39593098934338 1.921633049775709 0.8893109430423775  6.538133217606242 1.978964845085666 0.8633953168634505  6.499070384579991 1.860939559740645 0.9312914023450325  6.401695009368838 1.893911866843719 0.8370175308061242  6.540260392045887 1.950429308057869 0.8100663155847416  6.50324674005464 1.831639944289534 0.8795603793405878  7.089441677798713 2.122472448405671 1.0541931070135  7.079927241301728 2.093628749048746 0.9994904540616891  7.069979485553876 2.064745143206644 0.9448366847206101  7.05985542192626 2.035842398334516 0.8902174139361678  7.049756104866303 2.006932139284251 0.8356093477503618  7.039871222782495 1.978018442566312 0.7809792509947526  7.030385448622543 1.949086444058847 0.7262541459806851  6.389825687165458 2.181434657118738 1.094394590348907  6.394219152152285 2.154079785182964 1.039830626815867  6.398660004562691 2.126717501841038 0.9854804234823967  6.403137678156908 2.099370378362727 0.9313202569025708  6.407618225909756 2.072045232762626 0.8772986600120092  6.41208578142062 2.044800586627737 0.823417403230526  6.416491017329003 2.017724578835097 0.7696878661153139  6.653787102138409 2.268214122172215 1.052910247678555  6.535199123475923 2.255358360287075 1.063749974482521  6.615268797490034 2.356869371577974 1.004816735871048  6.611173232324918 2.328238126707262 0.9475269281505778  6.535473087912125 2.22609729526658 1.008497272202875  6.648327886054024 2.238092881632524 0.9977925051076791  6.642739724319901 2.207946545722412 0.9428326639222093  6.535712325152235 2.196832417491472 0.9534565777391718  6.606985648147139 2.299589293176698 0.8904409740877771  6.535914604021046 2.167565306609437 0.8985800036166166  6.637037606676 2.177799174842127 0.8880551224513689  6.602712888252097 2.270926076269126 0.8335122406666706  6.536096120622737 2.138317312812605 0.8438505749910475  6.631291076009069 2.147676321634088 0.8334107142998524  6.598414897948927 2.242295209170507 0.7767162412898004  6.62561295510889 2.11762560995497 0.7788719505268012  6.536323389988442 2.109156693105401 0.7892686823945626  6.594195690335488 2.213749151426105 0.7200405955495137  6.620164802275245 2.087742050130195 0.7244336801511295  6.536673089111281 2.080200891444382 0.7348410345704824  6.590168566293244 2.185372002074732 0.6634722241290331  6.249229098602153 2.446558344299073 0.9670793778615724  6.25172871711252 2.424884181542486 0.9071350551046363  6.254269843256044 2.403191036515537 0.847386127396175  6.256823385963905 2.381484925438705 0.7877832852224288  6.259376361839394 2.359793614246077 0.728308475736719  6.261921345311612 2.338153855091361 0.6689542054452613  6.264430567158199 2.316616052417512 0.6097288145662821  6.615305711976103 2.187711379408978 1.100273600596073  6.612064866412995 2.158014506797857 1.045419964891898  6.608731318387414 2.128315310618029 0.9908106379403749  6.605311879437469 2.098610258595677 0.9363806144064513  6.601847810798736 2.068929827361722 0.8820972954452362  6.598444801065434 2.039329029601144 0.8279405845659645  6.59529298925543 2.009937082712553 0.7739512243371577  6.554264878946384 2.457868413536515 0.9655665708678672  6.55084076154283 2.432827111303603 0.905613098845178  6.547352598325141 2.407733565406192 0.8458504492481647  6.543809685499962 2.382610785780661 0.7862573758478187  6.540242926646568 2.357506153553064 0.7267930138915876  6.536728995938248 2.33246373079602 0.6674360082278575  6.533370639096367 2.307555352178101 0.6081569258130614  6.499564533464329 2.357780356760104 1.011244415795027  6.498587755609291 2.330831368856075 0.9537060017432124  6.497569525847704 2.303859017185487 0.8963838531163524  6.49651236643615 2.276869327624922 0.8392363270122463  6.495435526019608 2.24989761226238 0.7822304311044278  6.494401012861077 2.222999236623772 0.7253441736904038  6.493516177415024 2.196258437776285 0.668558068028833  6.889247436518016 1.735928278239675 1.3364980763142  6.778192244004611 1.769165336474852 1.331800305760797  6.884658939488586 1.829686847020908 1.274741705180851  6.87559607398174 1.79504406887921 1.223398810539287  6.771848788916561 1.733830838441158 1.279613342019775  6.879775204946228 1.700026409352153 1.285130531607466  6.86995585666985 1.664189071248751 1.233954469553713  6.765254797225357 1.698612932757307 1.227626555980954  6.866202451788945 1.760458222763055 1.172275192848335  6.859932933639044 1.628393613285344 1.182950988509245  6.758489261924598 1.663450053232139 1.175823716282997  6.856592633575468 1.725889316660295 1.121312961806181  6.849885160583908 1.592645859249751 1.132072346269014  6.751697532225162 1.628343488622229 1.12417539046443  6.846949923346465 1.691358018398743 1.070470524252959  6.83999734942337 1.556966288721719 1.08129983441048  6.745038174161222 1.593321989722544 1.072671393691994  6.837471342020859 1.656892731616967 1.019713389521971  6.830533425397327 1.521400758693508 1.030619078593029  6.738756240015112 1.55842204085347 1.021315117222281  6.828392746873009 1.622575991273824 0.9690420994672611  6.68757020208665 2.640551510751099 0.8798428446253057  6.615534046174952 2.557287534828547 0.9202834600464269  6.554259491150917 2.670919742769819 0.8872256869757967  6.609377240862742 2.533593549303446 0.8588411526368651  6.546889625182208 2.653038590473419 0.8224489763624051  6.603133730057826 2.509860671627562 0.7975939033595908  6.671686464039203 2.601156112702838 0.753019071116581  6.539446010582439 2.635067589550057 0.7578246822629253  6.531959426115453 2.617037465911102 0.6933455784647731  6.59682587542255 2.486082304112418 0.7364924786644418  6.663625065049789 2.581385711818147 0.6897995488679878  6.524457490035138 2.59900851114667 0.6289768231981853  6.254697579332265 2.341232644697274 1.009085741982886  6.386813425369092 2.2972041657646 1.037037857116919  6.389719825912903 2.270843706947138 0.9805836770101259  6.258406824417345 2.317142626789217 0.9515635964964085  6.392658132686689 2.244473800103059 0.9243541047436987  6.26217927466493 2.293029997094462 0.8942014237223316  6.395607705980039 2.218101514866873 0.868300638911964  6.265982814147139 2.26892396979407 0.8370123478256252  6.398556677154528 2.191751370303148 0.8123955438594289  6.269791323152843 2.244839905925988 0.7799405805403736  6.401512319040099 2.165474485260654 0.7566169177343861  6.273579766305709 2.220813996179976 0.7229945590061684  6.404459732054483 2.139345474913469 0.7009500602830392  6.58115841034467 2.044053927222258 1.176497601449843  6.581053381526724 2.013996555880891 1.122832921311396  6.580891703079325 1.983952277774307 1.069403231341539  6.580679552091429 1.95392743830635 1.016173831800654  6.580446527557497 1.923941365027542 0.963
[...]
<PointData  Vectors="f_16"> 
<DataArray  type="Float64"  Name="f_16"  NumberOfComponents="3" format="ascii">-4.1660067056556388e-03 -3.8908068659262024e-02 -1.1234582867275137e-02  -3.4508388068598566e-03 -3.5119789151487314e-02 -6.4858986798984010e-03  -5.2788849866113570e-03 -3.5072293803712656e-02 -5.9670985240835358e-03  -4.8903287745599303e-03 -3.2260367890606753e-02 -6.7736336358619545e-03  -3.0009733791470806e-03 -3.2270130318456020e-02 -7.2320638956519948e-03  -3.8063150288827991e-03 -3.6438417685040830e-02 -1.2060718467794686e-02  -4.3388450672176369e-03 -2.9932728255303472e-02 -7.5583553121476438e-03  -2.4830445041309468e-03 -2.9906516010527680e-02 -7.9620379068293182e-03  -3.3354042419632716e-03 -3.4134367487756674e-02 -1.2827609199989647e-02  -3.9558360205642325e-03 -2.7741575378161777e-02 -8.3569700828631365e-03  -2.1272809032151598e-03 -2.7667261802486600e-02 -8.7072865866885778e-03  -2.8992857982411816e-03 -3.2039625575189419e-02 -1.3560680115760485e-02  -3.7307804180372137e-03 -2.5485914140367355e-02 -9.1818101596575618e-03  -1.8727401151743526e-03 -2.5309793815002889e-02 -9.4755302051348425e-03  -2.5739528159249400e-03 -2.9985455991173662e-02 -1.4285955455470735e-02  -3.5651580035551311e-03 -2.3078110090373232e-02 -1.0036740295768988e-02  -1.6390005941611836e-03 -2.2782756323183481e-02 -1.0275768962472565e-02  -2.3286017074052529e-03 -2.7871432096426785e-02 -1.5016912389018601e-02  -3.4286553766338557e-03 -2.0519850778469999e-02 -1.0948002699999545e-02  -1.4205732053254776e-03 -2.0094862593129745e-02 -1.1133643216188855e-02  -2.0663358341577111e-03 -2.5591187622576155e-02 -1.5790850291886406e-02  -1.3584282870979021e-02 -4.3349639668036177e-02 -1.7069159962025595e-02  -1.2417672755204031e-02 -4.4667698828799569e-02 -1.6799696997359666e-02  -1.3219469885585059e-02 -4.1705285167613702e-02 -1.6410094850262638e-02  -1.3075030652275672e-02 -4.0413153652509047e-02 -1.6662359718351980e-02  -1.2169107930353076e-02 -4.3785404053411400e-02 -1.6829749017490517e-02  -1.3432162711540603e-02 -4.2345972247800588e-02 -1.7106287304418197e-02  -1.2941220501326131e-02 -3.8953290379942766e-02 -1.6840462400879684e-02  -1.1960940045440733e-02 -4.2719150611888308e-02 -1.6807333785495100e-02  -1.3329506923814492e-02 -4.1174460509648306e-02 -1.7095315680197322e-02  -1.2877470001963327e-02 -3.7390944839090084e-02 -1.6948472099313890e-02  -1.1770219008064239e-02 -4.1491650119513022e-02 -1.6742617729327041e-02  -1.3281644848774176e-02 -3.9856957134888078e-02 -1.7038512205103131e-02  -1.2906031555119634e-02 -3.5944958834578440e-02 -1.7020351798633451e-02  -1.1641250662464922e-02 -4.0147099554266097e-02 -1.6636337438829429e-02  -1.3320035470770387e-02 -3.8502657783428165e-02 -1.6943121823653779e-02  -1.3057789942387297e-02 -3.4620038664071311e-02 -1.7079010558264589e-02  -1.1565152859640139e-02 -3.8875452652494480e-02 -1.6488187495469105e-02  -1.3438524356647835e-02 -3.7237248633788383e-02 -1.6816268741415081e-02  -1.3330510047992888e-02 -3.3294024356514733e-02 -1.7121994783343066e-02  -1.1630162493127124e-02 -3.7664242571699084e-02 -1.6312912954962903e-02  -1.3665214890810263e-02 -3.6000098463738750e-02 -1.6663219549251727e-02  -3.9463848435528637e-03 -4.8099593667304159e-02 -2.0377040249964146e-02  -6.0524256293956694e-03 -4.6684912758411266e-02 -1.8209507079934333e-02  -5.3500871727151476e-03 -4.8999270544652675e-02 -1.9758992554106288e-02  -4.8247552500629426e-03 -4.8305196192908545e-02 -2.0001479002706449e-02  -5.5639377232094226e-03 -4.5535979193156183e-02 -1.8705934981554883e-02  -3.3807627442220128e-03 -4.7176283379471766e-02 -2.0753786871730424e-02  -2.9312390803377529e-03 -4.6167786751099907e-02 -2.1017005348665432e-02  -5.1786495406001137e-03 -4.4314335732285444e-02 -1.9096132098564311e-02  -4.4088546587181358e-03 -4.7502487458338370e-02 -2.0129875145765100e-02  -2.5774762267900308e-03 -4.5049145320757635e-02 -2.1183370759452459e-02  -4.8648467255462211e-03 -4.2983488915925371e-02 -1.9398148845809999e-02  -4.0677282272022887e-03 -4.6579054037873963e-02 -2.0170963407581132e-02  -2.3371671352122930e-03 -4.3751945206553337e-02 -2.1264321208362771e-02  -4.6081866816392513e-03 -4.1497643059458231e-02 -1.9619088916689485e-02  -3.7726345679880598e-03 -4.5535486788987584e-02 -2.0130889705989339e-02  -2.1489923758630674e-03 -4.2207470460351566e-02 -2.1272257414486545e-02  -4.3367133338386866e-03 -3.9841262987296892e-02 -1.9780347823080295e-02  -3.5162764000478170e-03 -4.4224376328750870e-02 -2.0006404150640034e-02  -1.9460609530427035e-03 -4.0497579321303510e-02 -2.1239691430437451e-02  -4.1123121269825867e-03 -3.8115510486037917e-02 -1.9909331029164732e-02  -3.3032702919003451e-03 -4.2681958225691471e-02 -1.9824720812305640e-02  -1.1962972075080619e-02 -4.2546094259000404e-02 -1.6128271220726582e-02  -1.1779284410415669e-02 -4.1313227087105588e-02 -1.6440599401709683e-02  -1.1562738678964289e-02 -3.9891970786218263e-02 -1.6668512494291833e-02  -1.1351318479998701e-02 -3.8315377194130321e-02 -1.6829129155370940e-02  -1.1178425809189397e-02 -3.6812287449113405e-02 -1.6947844439510626e-02  -1.1136607116961942e-02 -3.5439265816992555e-02 -1.7042764904033836e-02  -1.1255576549877249e-02 -3.4110589134537274e-02 -1.7114885498691754e-02  -4.3411527183974813e-03 -4.5567258102789297e-02 -1.8349299740623232e-02  -3.7764440337763002e-03 -4.4163837260529408e-02 -1.8965336243504424e-02  -3.3356647319363057e-03 -4.2727964702197141e-02 -1.9464482016994047e-02  -3.0531711499530200e-03 -4.1188119449896254e-02 -1.9874246956128737e-02  -2.8024341779385839e-03 -3.9474678482174938e-02 -2.0208162562432689e-02  -2.5526202249899713e-03 -3.7669224431385387e-02 -2.0490212325015182e-02  -2.3148306180141736e-03 -3.5879088012035813e-02 -2.0747275427063842e-02  -7.4303114670731573e-03 -4.2763636300264092e-02 -1.4576829882267198e-02  -6.1222494153420444e-03 -4.3590847712484157e-02 -1.5579464904477812e-02  -6.9349692884717916e-03 -4.0317375721713733e-02 -1.2437673402510244e-02  -6.6691541944755746e-03 -3.8285112433614009e-02 -1.3300175259169197e-02  -5.7048402108993484e-03 -4.1938644987538180e-02 -1.6344805962335247e-02  -7.1067913327409150e-03 -4.1106048198469483e-02 -1.5373252141048873e-02  -6.8275166965673147e-03 -3.9449592204962823e-02 -1.6063289217770126e-02  -5.3679388104485495e-03 -4.0295484660227650e-02 -1.6996454390395790e-02  -6.4118068855894880e-03 -3.6267680399245883e-02 -1.4082574055442380e-02  -5.1069568929861218e-03 -3.8564226723826110e-02 -1.7573327295704825e-02  -6.5124712818336811e-03 -3.7729018210669749e-02 -1.6672458295703661e-02  -5.9911143398797299e-03 -3.4356720681213454e-02 -1.4804373953233184e-02  -4.7646856344631533e-03 -3.6792124855956926e-02 -1.8080914638832289e-02  -6.1021019943376725e-03 -3.6006518274678878e-02 -1.7225061881291224e-02  -5.6030109665995125e-03 -3.2513059855645114e-02 -1.5496574845537698e-02  -5.7587785319942863e-03 -3.4316995423533857e-02 -1.7741171179643890e-02  -4.4622032262872317e-03 -3.5030362941918844e-02 -1.8546710761643086e-02  -5.3667480784338204e-03 -3.0703099679043833e-02 -1.6178784497184427e-02  -5.5187415830820303e-03 -3.2631136307771660e-02 -1.8253928028228509e-02  -4.2175628314530629e-03 -3.3280454695651385e-02 -1.8988256286753030e-02  -5.1665757299192948e-03 -2.8777163586300936e-02 -1.6894758123890231e-02  -2.0142928553979022e-03 -3.8415793049923527e-02 -1.1784673698509716e-02  -1.5056312457312139e-03 -3.5836850565459044e-02 -1.2555717855086005e-02  -9.9673708744743724e-04 -3.3457089187784658e-02 -1.3269350378078909e-02  -6.0056645117076380e-04 -3.1295549926191053e-02 -1.3965676662305422e-02  -2.7485427952780774e-04 -2.9138129437563096e-02 -1.4656623167120832e-02  6.0935751545993351e-05 -2.6851812893122343e-02 -1.5352536961045313e-02  4.2132425327331659e-04 -2.4379574567305995e-02 -1.6078484894021916e-02  -7.0306805924536626e-03 -4.5020668428249366e-02 -1.6511184391333485e-02  -6.6313457315986622e-03 -4.3650980265678672e-02 -1.7154845936171254e-02  -6.2815562301017638e-03 -4.2239836750587199e-02 -1.7695956400338018e-02  -5.9812594482538941e-03 -4.0722893079009004e-02 -1.8151572596027937e-02  -5.6474148231327199e-03 -3.9088421411925506e-02 -1.8536803644988619e-02  -5.2966238344571244e-03 -3.7396064541742380e-02 -1.8870620232674676e-02  -5.0438670992837970e-03 -3.5736919736185785e-02 -1.9167709285779242e-02  -6.1252721354067875e-03 -3.7742770080982181e-02 -9.4366668954091199e-03  -5.8950325738558419e-03 -3.5269505919945578e-02 -1.0294473899226733e-02  -5.4682388825763751e-03 -3.3015001511832995e-02 -1.1100123061323908e-02  -5.0060968958428771e-03 -3.0936866940947615e-02 -1.1884104597487477e-02  -4.7046411070650685e-03 -2.8910069608523575e-02 -1.2667755063696568e-02  -4.5344429584034856e-03 -2.6824383293487318e-02 -1.3463166317569905e-02  -4.3727373434282674e-03 -2.4573077920316672e-02 -1.4302783005725739e-02  -5.5746017511659734e-03 -4.0792798172707645e-02 -1.3020245403582476e-02  -5.1978905860219074e-03 -3.8701951957063919e-02 -1.3872833749367980e-02  -4.8738874767105117e-03 -3.6646897832201264e-02 -1.4631412308916835e-02  -4.4722055676662108e-03 -3.4676000220888417e-02 -1.5330666847716562e-02  -4.0897260599272412e-03 -3.2753691791340959e-02 -1.6003215707647060e-02  -3.8332088934705613e-03 -3.0862467549314113e-02 -1.6670243172720433e-02  -3.5971857834043810e-03 -2.8870868349451441e-02 -1.7367851743288899e-02  -9.2038684591588434e-03 -5.1545810315669641e-02 -1.4489749425651769e-02  -8.1595394559103671e-03 -5.1586791203411649e-02 -1.5799351893775612e-02  -9.3603009377135060e-03 -5.0079554183130953e-02 -1.6208172575615912e-02  -8.9388241429924561e-03 -4.9847548719892193e-02 -1.5844194013385340e-02  -7.7646006222350482e-03 -5.1507968863394038e-02 -1.5240380447851306e-02  -8.8165134963203232e-03 -5.1419671530956196e-02 -1.3813808711788882e-02  -8.4724379340273548e-03 -5.1067791429831338e-02 -1.3259973431210881e-02  -7.3806941566058448e-03 -5.1224237565380672e-02 -1.4715350158578567e-02  -8.5741622690173186e-03 -4.9415355459476583e-02 -1.5485163501408198e-02  -8.1441339381021129e-03 -5.0619806110166400e-02 -1.2779318259155599e-02  -7.0139278674397317e-03 -5.0806685103983625e-02 -1.4237955592908094e-02  -8.2297327047062153e-03 -4.8862394842704125e-02 -1.5142690238657502e-02  -7.7987301884833672e-03 -5.0172122623182956e-02 -1.2303340557030858e-02  -6.6319344929318272e-03 -5.0347563287497253e-02 -1.3751011161576173e-02  -7.8663707849495196e-03 -4.8246265364021927e-02 -1.4779245530440268e-02  -7.3586616191854293e-03 -4.9782605524971088e-02 -1.1760438769333264e-02  -6.1763174429550396e-03 -4.9915283059440173e-02 -1.3174938137971567e-02  -7.4113240104310661e-03 -4.7568772081043632e-02 -1.4366089204700106e-02  -6.6652493154518988e-03 -4.9506572809743001e-02 -1.1076499610769069e-02  -5.5232209180936659e-03 -4.9450179366364928e-02 -1.2430928398281032e-02  -6.8433981811376254e-03 -4.6858016008491959e-02 -1.3807964513240253e-02  -7.7033692024594414e-03 -3.1578160901694428e-02 -1.9943670618745614e-03  -6.8402909663843785e-03 -3.4466058847596424e-02 -5.5047110338688286e-03  -6.0246044901734455e-03 -3.1473146587663849e-02 -8.2580533190705228e-04  -6.5416643566100236e-03 -3.1835717148913478e-02 -6.3612266400926692e-03  -5.3831967180129779e-03 -2.8666737853468228e-02 -1.5257477977476174e-03  -6.0075324662225401e-03 -2.9577476958956839e-02 -7.2067226427043789e-03  -6.7797389810527854e-03 -2.6587361905370869e-02 -3.4609521043037265e-03  -4.9139475820747566e-03 -2.6319323273598136e-02 -2.2600656087449298e-03  -4.6737880838925092e-03 -2.3947948771688286e-02 -3.0333465157122959e-03  -5.6541477519598607e-03 -2.7473807819503811e-02 -8.0592505208797512e-03  -6.6451035553796636e-03 -2.4364614844271985e-02 -4.2411847142560547e-03  -4.4997207680616763e-03 -2.1405758940753302e-02 -3.8380696760519049e-03  -2.2661084439468552e-03 -4.1403567687342942e-02 -1.5407566676577297e-02  -4.2125604630222375e-03 -4.2623870535545290e-02 -1.5591851764323367e-02  -3.7048300596946855e-03 -4.0742200556294322e-02 -1.6372797478297420e-02  -1.6753443904800323e-03 -3.9300726386592259e-02 -1.6201354816611609e-02  -3.3057425555311410e-03 -3.8855675468673238e-02 -1.7047874336032626e-02  -1.2261950370951627e-03 -3.7168282021010378e-02 -1.6885221335362032e-02  -2.9872738261240810e-03 -3.6938185760517765e-02 -1.7636090819931463e-02  -8.5534634537356579e-04 -3.5075274418897559e-02 -1.7498335430523943e-02  -2.6568901191242780e-03 -3.5010297898898250e-02 -1.8179267916313861e-02  -5.3405806181015206e-04 -3.3058062142473574e-02 -1.8080763466393722e-02  -2.3637650296486692e-03 -3.3106087142569261e-02 -1.8702697018641273e-02  -2.3634230350310604e-04 -3.1047066847982668e-02 -1.8656325492963199e-02  -2.0846882486595187e-03 -3.1179496302751904e-02 -1.9235966364604951e-02  -6.5708488393389549e-03 -4.8107475420289439e-02 -1.8692518482609569e-02  -6.0946635780600314e-03 -4.7280226772902272e-02 -1.9011908464258528e-02  -5.6952001024091273e-03 -4.6345270010668349e-02 -1.9231700743811975e-02  -5.3549911700627251e-03 -4.5288891601336312e-02 -1.9367603846599309e-02  -5.0339846412340477e-03 -4.4074008023845881e-02 -1.9424976905919308e-02  -4.7310434735105805e-03 -4.2651965710934103e-02 -1.9419447438954709e-02  -4.4693121182999016e-03 -4.1064730770637506e-02 -1.9363194530309012e-02  -8.2902124474471175e-03 -5.0143400140879174e-02 -1.7236254350419110e-02  -7.8408433815364449e-03 -4.9876703519371228e-02 -1.7024559951902326e-02  -7.4352967551833847e-03 -4.9424280419566022e-02 -1.6783718791904486e-02  -7.0472447905832632e-03 -4.8839577594426004e-02 -1.6519706545742523e-02  -6.6379788544581389e-03 -4.8157155077208039e-02 -1.6207821490753671e-02  -6.1347164688806679e-03 -4.7377855899351839e-02 -1.5818090986140485e-02  -5.6462812665106716e-03 -4.6399292092300100e-02 -1.5332160930847638e-02  -1.5266402584080300e-02 -4.5881549678014881e-02 -1.7016030887175727e-02  -1.5263055604269065e-02 -4.4098294673100176e-02 -1.7930703076640409e-02  -1.6228910544268914e-02 -4.4661428564960304e-02 -1.8544394684102322e-02  -1.5371890456412889e-02 -4.3240679620651937e-02 -1.7780034550789494e-02  -1.5373080426077549e-02 -4.5247853854159553e-02 -1.6596736436523010e-02  -1.6551482829093488e-02 -4.3924209216379094e-02 -1.8358846726753815e-02  -1.6988020567078807e-02 -4.3119800094203742e-02 -1.8159578675642978e-02  -1.5622653121486156e-02 -4.2271718681110508e-02 -1.7612633303917338e-02  -1.5687046984148960e-02 -4.4551360688543186e-02 -1.6230820943434109e-02  -1.7453824595376588e-02 -4.2074800486057780e-02 -1.7969253140010431e-02  -1.5917031104259429e-02 -4.1129823726744549e-02 -1.7441711743988224e-02  -1.6018973895982457e-02 -4.3717868108176537e-02 -1.5927385008755866e-02  -1.7915698935206052e-02 -4.0844941112832669e-02 -1.7765441469472381e-02  -1.6239482802763806e-02 -3.9832123303271176e-02 -1.7246753149974713e-02  -1.6323594468342820e-02 -4.2788050536241837e-02 -1.5628906040041461e-02  -1.8385151120657157e-02 -3.9494986723333160e-02 -1.7520679467629821e-02  -1.6603599358191945e-02 -3.8493300894530957e-02 -1.7014658289256544e-02  -1.6579396283015402e-02 -4.1768187850192748e-02 -1.5275563440265530e-02  -1.8885786648907766e-02 -3.8090943904239893e-02 -1.7256011813481915e-02  -1.7000604569212933e-02 -3.7120676263174793e-02 -1.6763963243548372e-02  -1.6860738927930607e-02 -4.0626299007997226e-02 -1.4889018278650815e-02  -1.4600334179495513e-02 -3.5651053900672108e-02 -1.3341431560285569e-02  -1.4626748822355606e-02 -3.2656925647211621e-02 -1.0090852506066660e-02  -1.5402179256435966e-02 -3.4182730800365692e-02 -1.2564020427005518e-02  -1.5872942093011121e-02 -3.1802728872749333e-02 -1.3111691733724617e-02  -1.4995020748760338e-02 -3.0105309876755342e-02 -1.0625457624950619e-02  -1.4816661645597201e-02 -3.3406213179474960e-02 -1.3878788334876288e-02  -1.6527736613295527e-02 -2.9805614763702880e-02 -1.3640945573964164e-02  -1.5415129313050502e-02 -2.8104276190891075e-02 -1.1168320293751295e-02  -1.5183303183756396e-02 -3.1475344342357624e-02 -1.4363246928484985e-02  -1.7148191328649399e-02 -2.8057018046425981e-02 -1.4182892743443231e-02  -1.5888002190786166e-02 -2.6275719541264245e-02 -1.1725816769899264e-02  -1.5618929340747241e-02 -2.9834786129820625e-02 -1.4847542048895266e-02  -1.7724810047754187e-02 -2.6269678162622125e-02 -1.4705315112639204e-02  -1.6371233710210393e-02 -2.4344887270276543e-02 -1.2263828750722686e-02  -1.6081277785777965e-02 -2.8235303141305606e-02 -1.5313301280623531e-02  -1.8301907529720093e-02 -2.4357411823442390e-02 -1.5210202590867751e-02  -1.6882079129709533e-02 -2.2293454109972567e-02 -1.2789900205400329e-02  -1.6551242472171317e-02 -2.6510519916303217e-02 -1.5754084017614238e-02  -1.8882525597546228e-02 -2.2305389598654701e-02 -1.5701695575955674e-02  -1.7431531950517744e-02 -2.0122702677355768e-02 -1.3305729679359606e-02  -1.7046833553450678e-02 -2.4641149388211624e-02 -1.6176159544034997e-02  -4.4857994259478590e-03 -3.2462394675878456e-02 -1.8545557840637049e-03  -3.9117291420730643e-03 -2.9588690873593164e-02 -2.5538175638245633e-03  -3.4192648856051513e-03 -2.7215166492106209e-02 -3.2764200741137494e-03  -3.1316699040674629e-03 -2.4842253965838456e-02 -4.0246188121957844e-03  -2.9277651564986787e-03 -2.2305772817541085e-02 -4.8000085610354834e-03  -2.7830515603168926e-03 -1.9598254252349397e-02 -5.6275841391945818e-03  -2.6903163605713491e-03 -1.6756737218576043e-02 -6.5352006038574923e-03  -1.2972737977110186e-03 -4.4698562020379820e-02 -2.1708933635360521e-02  -9.7304967430824761e-04 -4.3344115227760709e-02 -2.1970728378791767e-02  -7.8472422832900793e-04 -4.1796866669200794e-02 -2.2143514123774698e-02  -2.9405491267420285e-03 -5.1743722827824114e-02 -2.0567067284894436e-02  -3.3159434688206329e-03 -5.0033693949570725e-02 -2.1274202337860048e-02  -4.7777656265357077e-03 -5.0781473048706172e-02 -1.9999015535947719e-02  -4.3470632546742409e-03 -5.0441490355042307e-02 -1.9939436362928439e-02  -2.8324530549974692e-03 -4.9494973644927318e-02 -2.1398578403499995e-02  -2.5933215182659653e-03 -5.1584832989988921e-02 -2.0310498286752493e-02  -2.4045317328951995e-03 -4.8858072741491280e-02 -2.1396115319601481e-02  -2.2347517000989364e-03 -5.1312074898911451e-02 -1.9952184414946082e-02  -3.9461903830946780e-03 -4.9974973940139819e-02 -1.9775629086100116e-02  -2.0485805444790629e-03 -4.8097875172025135e-02 -2.1295407524304893e-02  -1.9033219884924653e-03 -5.0921665947926929e-02 -1.9509921747962372e-02  -3.5867740408481504e-03 -4.9375037707467082e-02 -1.9541098008254119e-02  -3.2688736109671443e-03 -4.8640939926950663e-02 -1.9237371836848906e-02  -1.7580052398585154e-03 -4.7194474408861466e-02 -2.1103206725680824e-02  -1.5861357867130949e-03 -5.0441401476858355e-02 -1.8989510245338577e-02  -2.9862815151511972e-03 -4.7768276491645549e-02 -1.8835898811877735e-02  -1.5653261040009941e-03 -4.6075900235952080e-02 -2.0825402885987380e-02  -1.3424328575021491e-03 -4.9829094512396803e-02 -1.8378050550933816e-02  -2.7226921650017996e-03 -4.6578134162172900e-02 -1.8356122780497152e-02  -1.3568715297621690e-03 -4.4623110559822918e-02 -2.0486600938996336e-02  -2.5210849356262057e-03 -4.4467006249724654e-02 -1.8594215886889164e-02  -1.8908429533419924e-03 -4.2854595286754303e-02 -1.9262168015535087e-02  -1.4202442256699046e-03 -4.1191756828920088e-02 -1.9803727976471962e-02  -1.1346449207952631e-03 -3.9408304538800967e-02 -2.0266897932050325e-02  -8.6173800966119277e-04 -3.7492060013013973e-02 -2.0657823456053503e-02  -3.7813715383050710e-03 -5.1492068834815385e-02 -1.8484011447197326e-02  -5.0903852259772996e-03 -5.0710970975143453e-02 -1.8139051199549176e-02  -3.4341211905396184e-03 -5.1114021950171125e-02 -1.8031223054311023e-02  -4.7367007813084398e-03 -5.0211780639371477e-02 -1.7791788769382470e-02  -3.1041651572178215e-03 -5.0635723992591482e-02 -1.7522505074981397e-02  -4.4021417298544877e-03 -4.9601943178381958e-02 -1.7385108491935256e-02  -2.7866137473248611e-03 -5.0089581591145391e-02 -1.6913749015646445e-02  -4.0433479345364206e-03 -4.8910706377822279e-02 -1.6872660846735530e-02  -2.4932200833553803e-03 -4.9284903013103218e-02 -1.6202770925579792e-02  -3.6869789415497939e-03 -4.79328764668