<?xml version="1.0"?>
<VTKFile type="UnstructuredGrid"  version="0.1"  >
<UnstructuredGrid>
<Piece  NumberOfPoints="933" NumberOfCells="3967">
<Points>
<DataArray  type="Float64"  NumberOfComponents="3"  format="ascii">4.175382251215987 1.89066375862255 1.144366198394927  4.313284334003245 1.95468364794356 1.106753064570696  4.287614506885986 1.829307452007339 1.165007799849791  4.284912375386953 1.805585176997481 1.112407859812531  4.311323540088407 1.930539169255838 1.053571194242713  4.171890653569598 1.866609157204545 1.091800203606474  4.168364479207303 1.842544222456423 1.039252785929369  4.309371829710147 1.906404750164555 1.000392487616996  4.282192576205251 1.78186608842668 1.059823247876976  4.16482307413039 1.81848097355563 0.9867364924676982  4.307424935169019 1.882281016172825 0.9472370215204715  4.279467639224284 1.758152344116575 1.007264227228767  4.161283360985188 1.794415780014712 0.9342539410393367  4.305478056876718 1.858155126212672 0.8941157115568364  4.276749072752347 1.73443750465004 0.9547367328162232  4.274047902031289 1.710709729549123 0.9022383728245272  4.303527175555101 1.834007721261991 0.8410319034833015  4.15776291719644 1.770342048045877 0.8818051377582298  4.27137484032178 1.686959915350061 0.849761111743159  4.301565867489618 1.809818242556465 0.7879790960280576  4.154286378044515 1.746253364326318 0.8293729132263149  4.786983214811 1.884382493512087 1.136928227852321  4.93053526947514 1.974278757717681 1.103738957629154  4.918641539883173 1.825513181575037 1.159212577780355  4.9189268104954 1.80361276479185 1.104190297393644  4.93121306909751 1.953886971893096 1.048330970320182  4.787735379935856 1.863156345683027 1.082395302734342  4.931917764285224 1.933602713808838 0.9929154703486526  4.78853528553343 1.842012900292067 1.02785440192556  4.91922538501619 1.781814266578224 1.049166729426529  4.789361040803463 1.820912176451162 0.9733274509871975  4.932637487215899 1.913384574854575 0.9375362973911328  4.919538122035306 1.760060157856438 0.9941538723866663  4.790197925639892 1.799815535276468 0.9188311513436032  4.933364214295916 1.893175493475659 0.8821969533341009  4.919862999122697 1.738310292134182 0.9391690015900327  4.791033157842948 1.778683081514852 0.8643789012579338  4.934089143802618 1.872925179651368 0.8269227385862782  4.920203343792782 1.716523236547463 0.8842295675230211  4.791854648643156 1.757470695748378 0.8099931187107831  4.934815738329742 1.852571999538611 0.7717419977978707  4.92057502102533 1.694648573667344 0.8293492615991598  4.787693440728455 1.436447479447946 1.355640162527779  4.830497983474356 1.572337287926745 1.2736277708947  4.926644668154853 1.494254832607077 1.324823313562851  4.927832935987353 1.461287226502877 1.27328216614505  4.830756441263663 1.543221733039629 1.220913930511865  4.788520141165895 1.402032942557866 1.30524580768972  4.831018360987263 1.514153581166387 1.168184327001157  4.789346081729216 1.367648299097623 1.254849221064963  4.929027081085 1.428359626546463 1.221724580321171  4.83129040867338 1.485106366858153 1.115458943399509  4.790180301342728 1.333278920166104 1.204459147314449  4.930227405559791 1.395446593314772 1.170156797965787  4.831583443766472 1.456060727461989 1.06274691280107  4.791036846968423 1.298913649617526 1.154083414909672  4.931444216305365 1.362529824733585 1.118588148315609  4.831910241787657 1.427000967022855 1.010055848612902  4.791927751916715 1.26454456938041 1.103729924359624  4.932686171432285 1.329594088075648 1.067023231685432  4.832282564658055 1.397908815165248 0.9573869403834606  4.792851752131771 1.230161720837338 1.053402848478583  4.933965118983044 1.296635857738522 1.015470796075812  4.78599486165572 2.023061793146026 1.082524463706253  4.894405497906132 2.101677550971678 1.057620330608495  4.895978814888014 2.081391306284647 1.001841604182173  4.787569576296042 2.002124784358094 1.027537175457687  4.89759029147333 2.061223216552628 0.9460836282988559  4.789202592880151 1.981285979116597 0.9725627473397975  4.790864905241028 1.960498541102514 0.9176094053394569  4.899221538169881 2.041123121979065 0.8903517723862977  4.900854844509192 2.021041339676754 0.8346686302438545  4.792531748614952 1.93972347410594 0.8627050646639375  4.902470702141046 2.000923657905195 0.7790650167617523  4.794179000234265 1.918912872925146 0.8078689591053233  4.904056002385256 1.980699422187433 0.723581879406672  4.795777236717369 1.898007180447521 0.7531392563304993  4.188180891407814 2.014385291188322 1.085720962555146  4.184952370527328 1.989495563592784 1.032372570798143  4.18170423350564 1.964608741176338 0.9790364919870546  4.178445376738425 1.939730825804205 0.9257257894549836  4.175183227995509 1.914851264505092 0.8724505589401018  4.171926502057516 1.889950586115682 0.8192138501450428  4.168686688428177 1.865004070754936 0.766008072549753  5.171125022811538 1.429888521515019 1.370256988936925  5.216201173603949 1.5509160562385 1.294404773418304  5.306936773862561 1.478147184569765 1.342841744257135  5.217446650841084 1.51917185163024 1.241755065549029  5.173300166466981 1.391455323499158 1.320688782849318  5.309762481715098 1.441763228210676 1.29259593157693  5.312569692568461 1.405413320850734 1.242307684035264  5.218638448080887 1.48746308857271 1.189064176453246  5.175443536236454 1.353044802683935 1.271099564220215  5.315368495685066 1.369070552676681 1.191996008419319  5.219816381788388 1.455768944026552 1.136351827105771  5.177578704429863 1.314647000104831 1.221504597734663  5.318166072780261 1.332717195934646 1.141676642876013  5.220999216128579 1.424068378702237 1.083631784018967  5.179717507624792 1.276245643303266 1.171912062337273  5.320963960355313 1.296340362589517 1.091359420388516  5.222202940734553 1.392341441413047 1.030908418385676  5.181867454075801 1.237829008976737 1.122327494442936  5.323765913469516 1.259934416402939 1.041043517707271  5.223450971797213 1.360572783673362 0.9781872400583276  5.184029451526749 1.199391600209823 1.072741894483392  4.521699093011561 1.336384517175364 1.426312969540766  4.548296575851487 1.477802084241364 1.332780473565915  4.630663416280589 1.39442559020313 1.386090687854869  4.630926218280991 1.359584570058795 1.336691303031176  4.548058071927147 1.446474811350566 1.282222868570016  4.522799053001047 1.300698242651329 1.37729649728751  4.631154797712894 1.324761375524808 1.28729075373025  4.547819399319086 1.415181185140818 1.231656075651154  4.523892782487411 1.265011480807512 1.328277247651675  4.631383970107303 1.289948006144904 1.237893082119096  4.547584012396515 1.383899656570211 1.1810974388836  4.52499134739938 1.229323155845947 1.279266972524062  4.63163353781747 1.255136644861361 1.188505976107678  4.547367224871515 1.35261977043969 1.130552802256114  4.526110645258393 1.193633445632494 1.230269191029828  4.631920802885868 1.220325459835987 1.139135331425684  4.547179725783539 1.321335118643629 1.080026024357529  4.527256836186196 1.157943682643273 1.181279207644883  4.632269781583143 1.185513672245597 1.089786131280614  4.547017457747481 1.29003667535477 1.029529714056477  4.528407702040468 1.122256678228796 1.132292572569268  5.009799864646597 1.415318532507922 1.37583852135269  5.105886206246026 1.331693092184997 1.462177062742162  4.962784031710258 1.293045238675167 1.490551399308133  5.011602369599272 1.376513607457877 1.326889699122215  5.117296298941304 1.152148254223819 1.28392678357191  5.016931712761727 1.260212055685672 1.180005639015293  4.978125719527868 1.114872207586361 1.313979038325401  5.015146345669648 1.29897360089677 1.2289617193855  5.12016219722773 1.107254660765508 1.239358268704936  5.018753666588062 1.221448833730375 1.131059777440227  4.982005100079654 1.07031981843913 1.269840337600471  5.123085246542178 1.062354715158384 1.194787122735284  5.020642304415982 1.182662913791315 1.082126049888209  4.985919124786845 1.025764160161407 1.225700351416196  4.994682146661455 1.608773831930223 1.25494056808543  5.125963614838201 1.601552009375078 1.260165691401647  5.079556689344224 1.512608521176585 1.315821283190998  5.080425381338706 1.479637282609964 1.263452943904535  5.127213104590571 1.572422389465077 1.206245383658494  4.995236629998022 1.580507654599268 1.201028920388782  5.081251956540077 1.446702959515214 1.211059640316857  5.128456056544519 1.543359834236026 1.152300105449381  4.995775934998617 1.55231041991497 1.147092960495697  5.082067681300258 1.413783324367116 1.158652894268778  5.129695964787461 1.514325075206384 1.098349865892506  4.996318817910198 1.524141955228046 1.093157202914804  5.082894502381807 1.380860889573988 1.106243414721702  5.130944355008102 1.485287721135955 1.044405473995668  4.99687660732896 1.495973849987946 1.039232504097806  5.083752187938078 1.347922418351805 1.053836925773896  5.132208407587263 1.456224694760727 0.9904761679290908  4.997462467328836 1.46778139868198 0.985325692981353  5.084669873555743 1.314957650995975 1.001438680155546  5.133472027497367 1.427114347039399 0.9365654515037044  4.998103530442053 1.439533506324245 0.9314395324270529  5.133341453516713 2.418936475347998 0.9534801298832076  5.075301733863841 2.524182671726107 0.9185292413105022  5.218897387525037 2.552904144775617 0.916385428331101  5.221427900211205 2.535264716656441 0.8546034036229342  5.079183363385154 2.505051382985989 0.8572939742547334  5.135365851474166 2.399907777529987 0.89409507716287  5.223946174028836 2.517688894905021 0.792940573942134  5.083071017849179 2.485988739381323 0.7961795588318862  5.137366806131279 2.380948962740324 0.8347824891087007  5.226422389574909 2.500198097244074 0.7314163057654434  5.086931188919936 2.46701820709528 0.7351955142509844  5.139336979560076 2.362085822595911 0.7755689272462839  5.228879561170442 2.482759105224657 0.6700190252711388  5.09077899534944 2.448109598612141 0.674327710521464  5.141310210821548 2.343284639459207 0.7164511817050974  5.231326911744344 2.465314597100261 0.608764853789818  5.094596890540566 2.429198571541168 0.6135984009664667  
[...]
<PointData  Vectors="f_16"> 
<DataArray  type="Float64"  Name="f_16"  NumberOfComponents="3" format="ascii">2.0727521064347686e-02 -5.2449011121951196e-02 -6.8054772405814881e-02  1.9762820623098733e-02 -5.0870321524348422e-02 -6.3206740788016511e-02  1.9461635972836826e-02 -5.1632033526893384e-02 -6.4355909301001157e-02  2.1281950251993028e-02 -5.1819345634816855e-02 -6.4516512149868213e-02  2.1592419219604305e-02 -5.0305692666481716e-02 -6.3748623948774036e-02  2.2577055632441872e-02 -5.2330838297322498e-02 -6.8532335036441058e-02  2.4316826839464002e-02 -5.1953463044323626e-02 -6.8773996835408399e-02  2.3339437535627661e-02 -4.9505705350501771e-02 -6.4067719117753094e-02  2.2979899091772612e-02 -5.1714736336238243e-02 -6.4506409900028108e-02  2.6036617927000620e-02 -5.1275976668754920e-02 -6.8817916134467652e-02  2.5080892993774282e-02 -4.8356481541418389e-02 -6.4205598955602503e-02  2.4612776043612325e-02 -5.1350269211869318e-02 -6.4327333802300865e-02  2.7794749684648422e-02 -4.9942536392793287e-02 -6.8771288323078675e-02  2.6765456721331248e-02 -4.6497050757627244e-02 -6.4280788157166785e-02  2.6271897215526405e-02 -5.0438516518859569e-02 -6.4069277836830307e-02  2.7799612238987432e-02 -4.8768816262867019e-02 -6.3780413061023208e-02  2.8064808205102279e-02 -4.4120076038641917e-02 -6.4323127491506538e-02  2.9345757084296785e-02 -4.7824246530189594e-02 -6.8682853443481490e-02  2.8952055620078663e-02 -4.6508401657287389e-02 -6.3478140968410715e-02  2.8993061497774954e-02 -4.1504958365009961e-02 -6.4351088054114117e-02  3.0488114317765935e-02 -4.5214845550914276e-02 -6.8579904684515441e-02  1.4977373198617309e-02 -4.8714377891266598e-02 -4.9165801884995385e-02  1.4029796552360838e-02 -4.7726160219978678e-02 -4.4987672363370222e-02  1.3681271537434224e-02 -4.8735388166499111e-02 -4.5196860048779382e-02  1.4947288687823841e-02 -4.8722085754953827e-02 -4.5100810319320457e-02  1.5496658201550276e-02 -4.7113947601942700e-02 -4.5231148264878708e-02  1.6455965232314247e-02 -4.8476136390964798e-02 -4.9220987895682113e-02  1.6880622701612669e-02 -4.6302090921935032e-02 -4.5359649605345095e-02  1.7874684826522488e-02 -4.8033610755938851e-02 -4.9166280947566671e-02  1.6184002265601370e-02 -4.8507447618559379e-02 -4.4921157156081359e-02  1.9222989432712806e-02 -4.7370235572369870e-02 -4.9019333952994799e-02  1.8171505063847491e-02 -4.5241804173636789e-02 -4.5401771126154816e-02  1.7390119789204867e-02 -4.8084410150470873e-02 -4.4666138853477401e-02  2.0514617820237807e-02 -4.6266922969482031e-02 -4.8821474582096722e-02  1.9390704789752241e-02 -4.3754405021212750e-02 -4.5392531584991659e-02  1.8515387196159104e-02 -4.7345594781594821e-02 -4.4354249889524661e-02  2.1619527509903959e-02 -4.4642244614592159e-02 -4.8603854964216174e-02  2.0317124979355922e-02 -4.1889718151112823e-02 -4.5363238701519204e-02  1.9573111734388200e-02 -4.6073295146351216e-02 -4.4017060403660102e-02  2.2388126219262915e-02 -4.2639561179769407e-02 -4.8374836973807761e-02  2.0937482996155624e-02 -3.9725758010977670e-02 -4.5323829849158059e-02  2.0376530429728888e-02 -4.4327284777444714e-02 -4.3665557402223464e-02  1.3630693662964120e-02 -4.9145478436753598e-02 -3.6289466390196597e-02  1.3711159446688459e-02 -4.9478971658163839e-02 -4.1582834233777698e-02  1.2389489030918422e-02 -4.9326874153860500e-02 -3.5609594610349182e-02  1.3000716249040136e-02 -5.0085395984624581e-02 -3.4251423160619208e-02  1.4585721544786120e-02 -5.0245024145002974e-02 -4.0635431507198394e-02  1.4333324610330921e-02 -5.0008496428789649e-02 -3.4690769223623789e-02  1.5679159108105009e-02 -5.0966647400801118e-02 -3.9640075444006245e-02  1.5331309041041848e-02 -5.0883709135928774e-02 -3.3134955888610061e-02  1.3898170988548153e-02 -5.0819639857070123e-02 -3.2919511841347650e-02  1.6786580912293535e-02 -5.1546372877366048e-02 -3.8614768751984427e-02  1.6416821387311837e-02 -5.1742319505213054e-02 -3.1639088240388302e-02  1.4916599536683525e-02 -5.1527226874230864e-02 -3.1616615778904018e-02  1.7831176546014089e-02 -5.1979211146889963e-02 -3.7528665392256418e-02  1.7450723295347293e-02 -5.2584856400499154e-02 -3.0168527470395085e-02  1.5886525234336063e-02 -5.2186678383898316e-02 -3.0322926256031432e-02  1.8830860795963914e-02 -5.2275984495211397e-02 -3.6369196745424583e-02  1.8471787423469981e-02 -5.3540848452985346e-02 -2.8612803223938294e-02  1.6810348544458894e-02 -5.2882386993748212e-02 -2.8955677746368102e-02  1.9730080314113312e-02 -5.2183922080501120e-02 -3.5130607108192310e-02  1.9371469432738559e-02 -5.4653178429886824e-02 -2.6869065993743096e-02  1.7555572279867305e-02 -5.3606849893829113e-02 -2.7396294120733206e-02  1.5582717462252467e-02 -4.7687988164072742e-02 -4.8328279290126674e-02  1.5006172001777476e-02 -4.6662547266973754e-02 -4.4063760563951823e-02  1.6529281144363698e-02 -4.5409144702674382e-02 -4.4599729332830476e-02  1.7190558944263148e-02 -4.6821983136578912e-02 -4.8722244371923240e-02  1.8002798285472334e-02 -4.4017604980378246e-02 -4.4942805379939693e-02  1.8698173043152116e-02 -4.5778656000693543e-02 -4.8937179099323082e-02  2.0202808219648052e-02 -4.4385988974601970e-02 -4.9046573627548502e-02  1.9448826872082992e-02 -4.2320533025234142e-02 -4.5190721201101458e-02  2.0566914930655694e-02 -4.0337487742394096e-02 -4.5400121850037903e-02  2.1484121832690238e-02 -4.2588606840905374e-02 -4.9111618696514286e-02  2.1346797705149516e-02 -3.8097166437222378e-02 -4.5594982909544619e-02  2.2398718048331798e-02 -4.0465784388316377e-02 -4.9162962391158957e-02  2.1955789912471900e-02 -3.5650960211979200e-02 -4.5780919858501253e-02  2.3045396543441319e-02 -3.8121942165246524e-02 -4.9207524027930327e-02  2.1202212469648998e-02 -5.1570052872132344e-02 -6.6200767857548068e-02  2.3050990072590673e-02 -5.0635833471929251e-02 -6.7056916167700195e-02  2.4811699530040535e-02 -4.9508718208329326e-02 -6.7638939747158719e-02  2.6672575834119763e-02 -4.7920064846310596e-02 -6.8022969129273539e-02  2.8384112120568079e-02 -4.5627212611973854e-02 -6.8335628699784517e-02  2.9714168538871235e-02 -4.2897132449602575e-02 -6.8610895846177244e-02  3.0722720105379110e-02 -4.0032388850442233e-02 -6.8868763554187390e-02  9.6180202572557702e-03 -4.9876073011586482e-02 -2.6422970053014319e-02  9.7478390647786767e-03 -4.9753858092918608e-02 -3.1169174960520126e-02  8.4525479236631298e-03 -5.0244508874508938e-02 -2.6021177995197424e-02  1.0211918411582716e-02 -5.0321375914377429e-02 -3.0111015560500068e-02  1.0026773109829603e-02 -5.0277029654281352e-02 -2.4802361252196304e-02  8.7766802702707244e-03 -5.0644743391532084e-02 -2.4596269584751137e-02  9.3773722634942387e-03 -5.1074551173148429e-02 -2.3266175405044089e-02  1.0933927293408323e-02 -5.0834122412715538e-02 -2.9035376084338392e-02  1.0703731813685946e-02 -5.0746733778019346e-02 -2.3289390692793933e-02  1.0120125554118878e-02 -5.1544175309291826e-02 -2.1990690353656160e-02  1.1755888074332614e-02 -5.1292871559704939e-02 -2.7980555993958732e-02  1.1514892119112195e-02 -5.1283171604847765e-02 -2.1859652942162255e-02  1.0812572557053483e-02 -5.2029554087595999e-02 -2.0756754841562208e-02  1.2539094152774726e-02 -5.1682374822009131e-02 -2.6927925096472509e-02  1.2283078418387430e-02 -5.1875885107362608e-02 -2.0489642701123589e-02  1.1453386913052026e-02 -5.2630201436611096e-02 -1.9464304450897620e-02  1.3288733347170383e-02 -5.2080741554006736e-02 -2.5788602046410411e-02  1.3017432335761336e-02 -5.2628394826093813e-02 -1.9081145871237638e-02  1.1975306470021619e-02 -5.3384153971343364e-02 -1.8045708476875193e-02  1.3803095716666989e-02 -5.2402941249197615e-02 -2.4511014344755225e-02  1.3725021007591589e-02 -5.3624882267703219e-02 -1.7576864262175189e-02  1.6164051452580552e-02 -4.8381334374877863e-02 -3.7438056485141792e-02  1.6303084901654004e-02 -4.9536179023510915e-02 -4.5428302557633464e-02  1.5170018603623108e-02 -4.8822152797537446e-02 -3.8199470459287073e-02  1.5889093964232104e-02 -4.9869814471870735e-02 -3.6378966064799227e-02  1.7246814982306621e-02 -5.0693686242161216e-02 -4.4040609824513528e-02  1.6910513117760529e-02 -4.9465079839850545e-02 -3.5343541669291781e-02  1.6974899993283641e-02 -5.0922310205773133e-02 -3.4626177087848285e-02  1.8475334547037016e-02 -5.1840425388645570e-02 -4.2612377234446962e-02  1.8055936079095690e-02 -5.0592374174550071e-02 -3.3389011415499874e-02  1.8156501746842274e-02 -5.1931734629417990e-02 -3.2972503114481896e-02  1.9723255520506917e-02 -5.2835756285395601e-02 -4.1187881454468118e-02  1.9250915449616227e-02 -5.1694192915241972e-02 -3.1605481512763524e-02  1.9282955144483586e-02 -5.2952474743991292e-02 -3.1359988449188893e-02  2.0928699113230302e-02 -5.3724827299902064e-02 -3.9735698250532837e-02  2.0398269002461323e-02 -5.2849596623994841e-02 -2.9884493988602101e-02  2.0383160188492028e-02 -5.4108783511421968e-02 -2.9657172033900725e-02  2.2097209165119591e-02 -5.4612127908526091e-02 -3.8170981873988784e-02  2.1536979235122398e-02 -5.4179135368134866e-02 -2.8082376928365235e-02  2.1467915347723885e-02 -5.5511412841536011e-02 -2.7739075929153399e-02  2.3180046762752510e-02 -5.5362670559912307e-02 -3.6450605080484560e-02  2.2746884849111818e-02 -5.5897858763012148e-02 -2.6071042032449223e-02  1.1221672055621804e-02 -4.9411973117798998e-02 -2.9336776714816229e-02  9.8837779604715875e-03 -4.9732713635552032e-02 -2.1901132506898121e-02  1.1235478947583940e-02 -4.9105672584063190e-02 -2.2592759862594174e-02  1.1711853874452409e-02 -4.9937895727256439e-02 -2.7577530116403556e-02  1.2115180443287724e-02 -5.0803962650607909e-02 -1.4947979396369734e-02  1.4263118040185308e-02 -5.1888361425637637e-02 -2.2848384162635460e-02  1.3615258188134442e-02 -5.0298851180210977e-02 -1.5340128326602533e-02  1.3407928548884698e-02 -5.1186027588760064e-02 -2.4359759039013336e-02  1.2755441594253602e-02 -5.1533233751456561e-02 -1.3505658032116341e-02  1.5071270783154549e-02 -5.2755046133400443e-02 -2.1304065340654155e-02  1.4289612866956953e-02 -5.1104157706610580e-02 -1.3845015259828571e-02  1.3391214683659076e-02 -5.2545703787919312e-02 -1.2006476910544154e-02  1.5936033334346542e-02 -5.3920013727028919e-02 -1.9673885245274553e-02  1.4962613132540046e-02 -5.2214781071577655e-02 -1.2291515450714554e-02  1.2203148730837462e-02 -4.9418795362495771e-02 -3.8556780795513473e-02  1.0894616460975611e-02 -4.9530273558020504e-02 -3.5116385757360383e-02  1.0942136745052721e-02 -4.9503645341749745e-02 -3.2640651569613245e-02  1.1448936895290845e-02 -5.0170085597583292e-02 -3.1418945581927003e-02  1.1562062404742215e-02 -5.0085969515007524e-02 -3.4257406156396594e-02  1.3020732270567818e-02 -5.0023146785439267e-02 -3.7750139211140232e-02  1.2254041172828424e-02 -5.0797307230592698e-02 -3.0197179331996216e-02  1.2414230091694884e-02 -5.0575194206685103e-02 -3.3373064480789250e-02  1.3996635805427577e-02 -5.0552560035603558e-02 -3.6905314941539695e-02  1.3187640719806760e-02 -5.1399174371403539e-02 -2.9001723718909272e-02  1.3317442434681252e-02 -5.0947123971315733e-02 -3.2472118023183304e-02  1.5018217342475564e-02 -5.0950033969595500e-02 -3.6023082314031611e-02  1.4065830281480656e-02 -5.1943988775232978e-02 -2.7821505518743943e-02  1.4181886566241954e-02 -5.1187198531176654e-02 -3.1520441735358375e-02  1.5972479535160383e-02 -5.1174910537754047e-02 -3.5097355945529603e-02  1.4885853120732886e-02 -5.2526974349283016e-02 -2.6559766676486473e-02  1.4962706051065542e-02 -5.1306649185277345e-02 -3.0488925040842777e-02  1.6861681502966457e-02 -5.1264019818412096e-02 -3.4074837388948183e-02  1.5518126304303969e-02 -5.3107611733984421e-02 -2.5135871982799988e-02  1.5630079360691544e-02 -5.1120440885180085e-02 -2.9397419968703129e-02  1.7664756876389059e-02 -5.0917144126029948e-02 -3.3009470153945002e-02  1.4273376608093701e-02 -4.1040361672242155e-02 -2.7632466798602345e-02  1.5221405770449276e-02 -3.8850217130092103e-02 -2.3408032599258090e-02  1.3583915319161116e-02 -3.7717279914988099e-02 -1.9286280753653556e-02  1.4699073328438310e-02 -3.4377756641871739e-02 -2.0111360022340506e-02  1.6586659842267690e-02 -3.5459908370684107e-02 -2.4314522700821611e-02  1.5639617291766331e-02 -3.8120453934341464e-02 -2.8500998184557102e-02  1.5450573727390574e-02 -3.1580640112269867e-02 -2.0897194849855315e-02  1.7488981457309177e-02 -3.2614995021063686e-02 -2.5153222668943133e-02  1.6694816733630904e-02 -3.5541165975007429e-02 -2.9223736245044690e-02  1.6325063616073884e-02 -2.8820843512875890e-02 -2.1689108311459107e-02  1.8406498838146483e-02 -2.9805452428912881e-02 -2.5966390596377294e-02  1.7501983853788046e-02 -3.2989124292117325e-02 -2.9929666338072963e-02  1.7335959900250893e-02 -2.5849918656995992e-02 -2.2461130623664203e-02  1.9450651259216641e-02 -2.6802593677762634e-02 -2.6751689281739550e-02  1.8322099087380306e-02 -3.0344797009188584e-02 -3.0620219441336832e-02  1.8375739219203810e-02 -2.2692796674025167e-02 -2.3221630132517424e-02  2.0544222739267821e-02 -2.3614560361004979e-02 -2.7525723080261962e-02  1.9232213972418241e-02 -2.7500300292077652e-02 -3.1292100657423438e-02  1.9471110064525413e-02 -1.9332908615608786e-02 -2.4004764271752108e-02  2.1708490533828371e-02 -2.0238000615709212e-02 -2.8318658620044183e-02  2.0218101746439249e-02 -2.4468213976896420e-02 -3.1944818864329802e-02  1.2586180419811745e-02 -4.6629799000322450e-02 -3.9121627871874363e-02  1.1982227449323644e-02 -4.5194873759324086e-02 -3.4626105475554080e-02  1.1106957932953892e-02 -4.6907833138526707e-02 -3.6498381595588679e-02  1.2249620950506867e-02 -4.6085990318195852e-02 -3.6820188963490874e-02  1.3189541611550512e-02 -4.3694255268075903e-02 -3.5219214632756901e-02  1.3897914698373525e-02 -4.5638665756172390e-02 -3.9530978655124338e-02  1.3314447119977726e-02 -4.5073347594408050e-02 -3.7048902513680357e-02  1.4377293197459508e-02 -4.2067033991242987e-02 -3.5631605772326561e-02  1.5131234079049285e-02 -4.4495048272941429e-02 -3.9810465585197984e-02  1.4276958585705032e-02 -4.3828267771147601e-02 -3.7199992139750886e-02  1.5421668076783598e-02 -4.0233544664746275e-02 -3.5983472521427737e-02  1.6302207001456268e-02 -4.3053798137962389e-02 -3.9998737687720394e-02  1.5152314229569664e-02 -4.2258460909554124e-02 -3.7302898778147561e-02  1.6192966287273756e-02 -3.8228288846794148e-02 -3.6315968611236191e-02  1.7293779085601715e-02 -4.1329077788873604e-02 -4.0153795309166476e-02  1.5857301636469624e-02 -4.0401728743455080e-02 -3.7384803850807002e-02  1.6800888270572037e-02 -3.6045423812299852e-02 -3.6637554204032238e-02  1.8025888318412717e-02 -3.9342553940366058e-02 -4.0293960806501009e-02  1.6360679705266442e-02 -3.8317844050434181e-02 -3.7457702701271280e-02  1.7351208709265993e-02 -3.3694952056458526e-02 -3.6950200870486935e-02  1.8557025968851500e-02 -3.7119451346618627e-02 -4.0424024182098686e-02  1.7643573293845798e-02 -3.0210164047361810e-02 -1.3777228934863377e-02  1.5782016413004862e-02 -2.8736084673875558e-02 -7.3502061248124631e-03  1.5897118540694637e-02 -3.1736563212777229e-02 -1.5767724584302749e-02  1.6874730331977707e-02 -2.8674191088370198e-02 -1.6507774854344435e-02  1.7011429955879218e-02 -2.5323859955839547e-02 -7.8893019188904737e-03  1.8888814112704318e-02 -2.6823590861745329e-02 -1.4495057408322194e-02  1.8017754065624760e-02 -2.5467720005983515e-02 -1.7238366985517596e-02  1.9703875642021914e-02 -5.0818519509937467e-02 -5.6239561303012345e-02  1.8530555121957913e-02 -5.0334820860184121e-02 -5.2854782487913518e-02  1.8894517592838632e-02 -4.9706885204635981e-02 -4.9003260159260882e-02  1.9990279459501242e-02 -5.1266404840224315e-02 -4.7296384498516156e-02  1.9733421711029205e-02 -5.1758176646729527e-02 -5.1617386076790971e-02  2.1018911053927787e-02 -5.2391276193281509e-02 -5.5060180878029198e-02  2.1385189639061108e-02 -5.2769913506812871e-02 -4.5639320132206951e-02  2.1127302277281879e-02 -5.3031291945692623e-02 -5.0357386585571783e-02  2.2474988529394842e-02 -5.3753120941997252e-02 -5.3845062101345473e-02  2.2736033796740367e-02 -5.4057976291927219e-02 -4.4042538521892646e-02  2.2494653860801878e-02 -5.4076313798608937e-02 -4.9068233377192544e-02  2.3889921976011773e-02 -5.4853272588026122e-02 -5.2605583628849602e-02  2.4063896137508079e-02 -5.5283817848312308e-02 -4.2411016746318302e-02  2.3838176864061030e-02 -5.4974670523565423e-02 -4.7709332309800505e-02  2.5281405776677555e-02 -5.5779828057943216e-02 -5.1286726155102130e-02  2.5388105911422643e-02 -5.6553900100720672e-02 -4.0642515473980463e-02  2.5152523557868713e-02 -5.5778149950747487e-02 -4.6239882812227434e-02  2.6691747177174936e-02 -5.6635112134037331e-02 -4.9831125027119734e-02  2.6651277829621081e-02 -5.7797772015811918e-02 -3.8698216197633847e-02  2.6425103517670828e-02 -5.6118169600499951e-02 -4.4696057177893184e-02  2.8085614063524608e-02 -5.6886035124478415e-02 -4.8339783986807251e-02  1.6521996724969991e-02 -4.6347848371937950e-02 -4.5819709307035203e-02  1.8118794727882089e-02 -4.4762947079779992e-02 -4.6495833706450454e-02  1.9734698920147224e-02 -4.3009007200128749e-02 -4.6948439430406247e-02  2.1230817115360234e-02 -4.1024101590362155e-02 -4.7284476755221308e-02  2.2295731942703245e-02 -3.8777683632122549e-02 -4.7600767614553084e-02  2.3066003204185222e-02 -3.6327701696902491e-02 -4.7898138719833484e-02  2.3759479813395212e-02 -3.3711755289955340e-02 -4.8185376522473691e-02  1.4919218256017512e-02 -4.9502146236646678e-02 -4.3156334053363207e-02  1.5825729646878416e-02 -5.0469992689609451e-02 -4.1993408966969827e-02  1.6984828887899192e-02 -5.1420377372268691e-02 -4.0793226465208478e-02  1.8152174203313231e-02 -5.2228522407554129e-02 -3.9589837812960708e-02  1.9272100245370283e-02 -5.2909391321295157e-02 -3.8338292459921951e-02  2.0388440118167726e-02 -5.3547294218412929e-02 -3.6976820622526128e-02  2.1386547591624377e-02 -5.3920215300390290e-02 -3.5501627436271221e-02  2.1331402709722891e-02 -5.1780264862064031e-02 -6.2625876595759911e-02  2.0533092551422799e-02 -5.0271589034888056e-02 -5.4199489994489702e-02  2.1755754100857960e-02 -5.2071052706590154e-02 -5.2578840481579785e-02  2.2806690774491455e-02 -5.3485848223215809e-02 -6.1600871679143805e-02  2.3210753463071040e-02 -5.3718879682573585e-02 -5.0992106150723172e-02  2.4314827146199109e-02 -5.4887660205770676e-02 -6.0539553043749250e-02  2.4613122019682559e-02 -5.5133103216916661e-02 -4.9434384795018771e-02  2.5790809988372090e-02 -5.6012579592138206e-02 -5.9410023073496313e-02  2.6006027116549101e-02 -5.6453333678449881e-02 -4.7828415711119149e-02  2.7251109486374967e-02 -5.6948383864079757e-02 -5.8171250106960205e-02  2.7409851651688626e-02 -5.7780497796024441e-02 -4.6069659803238995e-02  2.8764923251277927e-02 -5.7659163803016618e-02 -5.6812483471100003e-02  2.8821890108951399e-02 -5.8914320244005509e-02 -4.4153911298987922e-02  3.0272541477776263e-02 -5.7650084268033648e-02 -5.5428757401029378e-02  2.5781381667543457e-02 -5.3198297829688858e-02 -7.2294119506710317e-02  2.5546794114464727e-02 -5.5104148553333877e-02 -7.8525051688118033e-02  2.4346981062024799e-02 -5.3689883299169891e-02 -7.2880461845096167e-02  2.5949967235072809e-02 -5.5574537042185700e-02 -7.2106960364275940e-02  2.7209908998117961e-02 -5.6771484624958853e-02 -7.8148671594863287e-02  2.7224524127188295e-02 -5.5417409449444212e-02 -7.1132464412297980e-02  2.7482446546345421e-02 -5.7047763686757638e-02 -7.1256367627658149e-02  2.8763010117533780e-02 -5.8028896890693939e-02 -7.7608881196433707e-02  2.8660410472877814e-02 -5.7261062262680448e-02 -6.9913469718834970e-02  2.8966678076313503e-02 -5.8220302447589321e-02 -7.0293974789456010e-02  3.0248115968118060e-02 -5.8975896361631266e-02 -7.6901686347225565e-02  3.0059749786665823e-02 -5.8798196093835964e-02 -6.8620813534821051e-02  3.0412294969391893e-02 -5.9182013705621997e-02 -6.9169144014107661e-02  3.1676056046575626e-02 -5.9694063358297092e-02 -7.6003331273746408e-02  3.1426910991711174e-02 -6.0101845324103127e-02 -6.7226385596494576e-02  3.1911801835864763e-02 -5.9749320886006096e-02 -6.7911404746651804e-02  3.3133284144829932e-02 -5.9769157307022612e-02 -7.4982522269024840e-02  3.2760228368852076e-