<?xml version="1.0"?>
<VTKFile type="UnstructuredGrid"  version="0.1"  >
<UnstructuredGrid>
<Piece  NumberOfPoints="997" NumberOfCells="4323">
<Points>
<DataArray  type="Float64"  NumberOfComponents="3"  format="ascii">4.993283683593704 1.472548114457358 3.543505878340805  4.909063684707703 1.414478745310096 3.450508335155616  4.853068316176036 1.47563817048588 3.578937226236635  4.902612084868541 1.468473936384188 3.42062816584029  4.9155248118881 1.36050659706965 3.480374428385462  4.999102514985604 1.416913238540713 3.574449787616349  4.859351300090709 1.41999648301774 3.610721664877022  4.865643574429752 1.36437997671261 3.642495312665719  5.004916998585844 1.361313525184234 3.605371618035668  4.92199292505489 1.306574654451077 3.510216162906475  4.928468762876191 1.252663187744085 3.540027856680713  5.010738345879608 1.305735503617145 3.636259630882622  4.87194410777092 1.308806467172365 3.674225849076081  4.878260012216465 1.253240376118202 3.705899304212136  5.016578052654402 1.250175827139156 3.667090599737562  4.934953891227254 1.198770498909557 3.569787968003235  4.884598880223742 1.19768853631513 3.737484226492301  5.022450006436156 1.194630608855595 3.697844959501749  4.941457475053717 1.144889421628005 3.599476817362736  6.459577792625137 1.352155949482453 2.900788914255584  6.361210316713238 1.384655763802969 2.984114067413468  6.36697995706405 1.312636968810692 2.860978311603914  6.37679725240938 1.260399001652022 2.889875911290594  6.369920431328125 1.333906897440869 3.014325003085697  6.46944780553941 1.300172910644662 2.93009987976981  6.386741444523509 1.208154381977455 2.918721938214331  6.378715232082034 1.283145568083951 3.044495315603618  6.479425929070207 1.248191724544279 2.959351843095224  6.396741268743714 1.155910002064756 2.94754124245251  6.387554114191564 1.232379141552277 3.074641504694096  6.489454088384795 1.196215481148303 2.988573776607004  6.406746144192767 1.103670520176358 2.976354196504694  6.396402853624259 1.18161199857406 3.104777585410097  6.49949151210294 1.1442476707045 3.017785268414666  6.416706557182025 1.051442889900132 3.005184326198589  6.405227677041173 1.130848152026196 3.134922412052431  6.509497742357547 1.092297866279601 3.047006523669568  6.426556945557763 0.9992371396151714 3.03406409162169  6.413989183034466 1.080096511673598 3.165111378252042  6.519411052905534 1.040381732206743 3.076269296723384  4.680102075918017 1.051658348921923 2.71859553639236  4.802975734908745 1.08318651267892 2.754090686589028  4.738830191058629 1.124524099431383 2.862993432204408  4.746618232273208 1.073084713777428 2.890257275480963  4.809932958583091 1.029119358074707 2.777671553987671  4.687782692303051 0.9973572700489221 2.741051065854985  4.754476736095483 1.02168411383308 2.917544750416081  4.816915723050887 0.975070367368573 2.801273868867032  4.695535053308907 0.9430599691986752 2.763509227925448  4.762363583659877 0.9703050156166292 2.944825035751215  4.823911546276761 0.9210303555616628 2.82487594553066  4.703312495378058 0.8887648500417146 2.785964952482801  4.770251871723918 0.9189382919576861 2.972087006599022  4.830914772240143 0.8669951873710252 2.848470950943216  5.955533382714856 0.9165560782793514 2.40269543838987  5.845068522145448 0.8937131031120636 2.269261518336548  5.817635271459257 0.90457862733879 2.430490781769391  5.948859496929239 0.9780955370608641 2.397344394066289  5.811124436627455 0.9658428243673466 2.424306964380847  5.824142764139371 0.8433175570428377 2.436674267051201  5.962212307824002 0.855018768461416 2.40804701126277  5.851783748433599 0.8316078114161106 2.268959830062721  5.830643743109341 0.7820630961901792 2.442867258638785  5.968907822858143 0.7934887654461745 2.413416608381823  5.858510983036839 0.769533088103412 2.268672929942057  5.837150079570955 0.7208239328033123 2.449078313865797  5.931473154904922 0.99171976790899 2.538100479544052  6.079010469353864 1.005244146722975 2.49902827544402  6.072293978928005 1.066284093086069 2.489522071114206  5.925245580631906 1.05223663271548 2.526705907039303  5.937695815690844 0.931208324292057 2.54948025867229  6.085743409528281 0.9441820293021717 2.508518298592723  5.943919953186545 0.8707082986158436 2.560858423194858  6.092480685361202 0.8831102805967761 2.518010368767447  5.950148923407863 0.8102307384708788 2.57224299266083  6.099211944468125 0.8220267041993053 2.527517229946587  5.975642029731829 0.731972379702965 2.418805402249015  5.956393414582656 0.7497594251976251 2.583643390922971  6.105963057412709 0.7609293187201368 2.537051675339704  5.355087835250101 1.485707127186717 3.371309182754758  5.405190149822639 1.420765017535311 3.246170556434023  5.508055343992956 1.475432542368829 3.328056431514578  5.512746510016086 1.422429312912982 3.357652809612957  5.409433040592582 1.368508151225227 3.275300972755077  5.359710067103734 1.431852201806816 3.400773592089601  5.364263871206574 1.378003842111564 3.430233905497482  5.413595493457856 1.316257990627231 3.304427805973766  5.517368291925361 1.369429418293356 3.387254479255842  5.368786773716559 1.324167798135344 3.459678855678164  5.417720790643353 1.264014734309139 3.333541780897936  5.521958220687521 1.316431015083032 3.41684818357909  5.373308908836392 1.270338572511933 3.489097008603978  5.421842589968976 1.21177497669125 3.362633859089506  5.526546827925221 1.263429907509508 3.446420016289366  5.377860574220583 1.216510707990865 3.518472003932076  5.425996273461631 1.159532532119985 3.391691370087039  5.470340267864888 1.482227101614623 3.476990320271536  5.475293766051038 1.427368828831248 3.507214482672278  5.314764487597004 1.236320136318191 2.933833097832489  5.290310583825518 1.161780168637321 2.799566698359138  5.410136285370098 1.195180542592574 2.846746591432562  5.41369333107356 1.142191856741949 2.873735070855588  5.294272552835145 1.108055994202013 2.826030052286149  5.318185990896565 1.18472432344039 2.962553008670677  5.417173635848249 1.089211695612135 2.90072344237411  5.298165547133574 1.054363774721046 2.852491938185342  5.321522245708255 1.133138978570191 2.991262704915835  5.420621834476831 1.0362377115905 2.927702686471406  5.302027014253705 1.000692099017705 2.878942206687997  5.324821253115647 1.081564120190236 3.019958495110374  5.424065017617845 0.9832702900647659 2.954668756864199  5.30588275387072 0.9470373754858442 2.905374845893461  5.328115428078829 1.029997851968447 3.048636010692895  5.427525378193335 0.9303142009653944 2.981622464547006  5.309755674983466 0.8934077715599162 2.931783873460369  5.331435799295676 0.9784408986812685 3.077294083500983  5.431031579573434 0.8773750045913828 3.008564475795295  5.313669064754523 0.8398067492526617 2.958169739983474  5.334825527926932 0.9269048697643242 3.105935155346355  6.020892663022329 1.150709850940701 2.624950416556045  6.157217477744318 1.158430655284428 2.603805227505686  6.118098407504039 1.209239707996947 2.740353431196583  6.126877312481215 1.154036588324364 2.764718624284445  6.165642877662757 1.099274471744529 2.621256630702037  6.027499666256699 1.091932860452406 2.642153031955573  6.135768204049806 1.098795195799468 2.789059457838837  6.174133167051917 1.040094995318916 2.638666301774936  6.03409169320072 1.033120331455673 2.659344498455845  6.14470704117678 1.043524319503962 2.813389315607336  6.182664770490759 0.9809199790292729 2.65605580710055  6.040681942695593 0.9742914879016993 2.676522598596491  6.153646675195961 0.9882375055020218 2.837727239340427  6.191193495399675 0.9217534640396172 2.673444953281999  6.047281915812393 0.9154593928201499 2.693704660357695  6.16254611742557 0.9329395246979191 2.862096517050816  6.199682415734183 0.8625942130817084 2.690853837658523  6.053912683238826 0.8566292808327243 2.710904686795764  6.171358538163366 0.8776283766826648 2.886519294958319  6.208115678167009 0.803434461790731 2.708311938316898  6.060609952378864 0.7977907670590323 2.72812483653708  5.079144831425212 1.242836892785847 2.979376482655608  5.19657460669226 1.205136879699496 2.893621354653873  5.196809640740843 1.283844513402564 3.032347726320314  5.201147014349834 1.232622322481772 3.061414958933169  5.200854385645684 1.15298452021814 2.921919826474351  5.084213763910044 1.191630087071488 3.008333156998078  5.205427185663412 1.181427729585489 3.090468855199796  5.205079133040891 1.10087194913623 2.95021640725738  5.089255366461892 1.140454630811512 3.037285611258725  5.209680863632459 1.130254933156701 3.11950487878988  5.20928032715304 1.048782428651795 2.97849934358998  5.094284235676483 1.089310346652479 3.066220687688193  5.213931946898006 1.079097235453126 3.148517761972737  5.213477720702547 0.9967094604445967 3.006761133801142  5.099313450113469 1.038186749127675 3.095130477519609  5.218203662747469 1.02795234581163 3.177501232729456  5.217689205134745 0.9446550798051342 3.034996328612918  5.104357837514248 0.9870817084551979 3.124006847710879  5.222518156209332 0.9768217623620219 3.206450284326603  5.221938505234044 0.8926240722553369 3.063199269928722  5.109448586936001 0.9359951398662376 3.152842974783436  5.341436245777747 1.313528095051713 3.065080408679424  5.484346514861119 1.316893898814649 3.054912610629479  5.454073567378616 1.370203948538444 3.14859262538834  5.457970917204034 1.318971596686899 3.178006651818682  5.487885509333434 1.266250114447318 3.084896894412932  5.344979290641817 1.262550350892606 3.094425575167965  5.46178038386244 1.267737154324003 3.20741885646017  5.491332988193232 1.215597119288318 3.114873091140641  5.348434840924842 1.211579167731764 3.123759071813501  5.465550245173099 1.216503062963355 3.236821230744219  5.494739328437046 1.164942092540967 3.144839037605365  5.35185118244713 1.160617807025303 3.153077604073391  5.469315442083917 1.165267661665999 3.266205977563092  5.498141937977934 1.114284898327781 3.174789281388889  5.355262077999092 1.109662634374489 3.18237646633477  5.473111524152931 1.114026096187025 3.295565787494847  5.501578895992736 1.063623737857214 3.204720852204093  5
[...]
<PointData  Vectors="f_16"> 
<DataArray  type="Float64"  Name="f_16"  NumberOfComponents="3" format="ascii">1.2675411386167661e-02 -7.1152101953133359e-02 2.9289604592268256e-02  1.3808473783597366e-02 -7.7733039654055064e-02 3.2047892167735480e-02  1.2811635913194161e-02 -6.4553936376532950e-02 2.6748285855324704e-02  1.5511226320302182e-02 -8.0007017529895072e-02 2.8140082238236636e-02  1.2035110205334499e-02 -7.5392477500436803e-02 3.5418623348666259e-02  1.0849087263921260e-02 -6.8232420216865750e-02 3.3082412673644306e-02  1.0897429749290255e-02 -6.1478613173869302e-02 3.0535341924697413e-02  8.9449522988075958e-03 -5.8382741095964877e-02 3.4105668163839364e-02  9.0047929054046742e-03 -6.5237139703590491e-02 3.6609929007330490e-02  1.0307946910373723e-02 -7.2804334094260140e-02 3.8483614492661251e-02  8.6748787494586969e-03 -6.9954145305813301e-02 4.1418637824268939e-02  7.3032825840780996e-03 -6.2004486996458670e-02 4.0107216320956048e-02  7.0966097928132433e-03 -5.5103819955925892e-02 3.7684715212882872e-02  5.3985404468625924e-03 -5.1529492010341731e-02 4.1465962836108657e-02  5.6479621195834398e-03 -5.8424024676437716e-02 4.3782751017671311e-02  7.0035444031809370e-03 -6.6654034279140031e-02 4.4450757222400078e-02  3.6132247637823286e-03 -4.7510943618224090e-02 4.5757699267898334e-02  3.9190054861308185e-03 -5.4351044963666224e-02 4.7909215666065534e-02  5.2446069277188624e-03 -6.2769359156693683e-02 4.7799976113010595e-02  6.5193920263249766e-03 -1.1061546633910944e-01 4.4404061605804783e-02  7.6474394312805666e-03 -1.1191411572588848e-01 4.5573081340339730e-02  6.6580993653707135e-03 -1.0862635510613712e-01 4.3676699755968947e-02  6.4649404712107438e-03 -1.0943545059943556e-01 4.1838427088499185e-02  7.4942721820607031e-03 -1.1249294180595251e-01 4.5080930825432422e-02  6.3758168111076761e-03 -1.1138905717158544e-01 4.3033576412475766e-02  6.1888363429437468e-03 -1.0970529745592275e-01 4.0236637590411926e-02  7.2653119369789753e-03 -1.1245004141154379e-01 4.4598507094037454e-02  6.1630053541133021e-03 -1.1156978678193796e-01 4.1819946731410443e-02  5.8629355123678414e-03 -1.0959289166924248e-01 3.8655388287492175e-02  6.9600167603712931e-03 -1.1192810670150270e-01 4.4022835015745283e-02  5.8877316721334142e-03 -1.1132328709299830e-01 4.0583151031039738e-02  5.4919769301935003e-03 -1.0922079405135238e-01 3.6899145710189936e-02  6.5907720881344840e-03 -1.1102743215626792e-01 4.3224586466435927e-02  5.5608812635861747e-03 -1.1076855807411552e-01 3.9149012439104861e-02  5.0776618300346381e-03 -1.0870528993123535e-01 3.4779350792013275e-02  6.1640977014923359e-03 -1.0982510499546377e-01 4.2041525804079015e-02  5.1874119980913269e-03 -1.1001351494255346e-01 3.7339220307707074e-02  4.6236333445992383e-03 -1.0817185019676087e-01 3.2109148676329066e-02  5.6833454671703643e-03 -1.0839228922194323e-01 4.0271869139028062e-02  4.7607139703959292e-03 -1.0919557775515172e-01 3.4977686652822811e-02  1.5947599670802913e-02 -8.0807517000394125e-02 3.0133713761663218e-02  1.5466594037930281e-02 -8.4919589914061205e-02 3.2911239499932528e-02  1.6356542885566858e-02 -8.7336158632533190e-02 3.5185580815290919e-02  1.5020099278796196e-02 -8.8115331283796325e-02 3.3696045112971029e-02  1.4182825092243421e-02 -8.5510156333178947e-02 3.0483319693418949e-02  1.4623485596325338e-02 -8.1264013129574000e-02 2.7610515427393397e-02  1.3686070926587881e-02 -8.8402177934036957e-02 3.2388453134376251e-02  1.2914041684702291e-02 -8.5761145274951822e-02 2.8391558615109929e-02  1.3314797467875365e-02 -8.1459263713782565e-02 2.5464017359819045e-02  1.2338055719676628e-02 -8.8334068708651070e-02 3.1077797751631508e-02  1.1653129941093261e-02 -8.5785040942296081e-02 2.6388213576355193e-02  1.2013685755586789e-02 -8.1492103036304567e-02 2.3426653100172303e-02  1.0965929687133880e-02 -8.8027547536253331e-02 2.9592495491178095e-02  1.0382996974075340e-02 -8.5682656168549934e-02 2.4281149192817542e-02  3.2827736398781449e-03 -7.9542864140542915e-02 1.6443885683789312e-02  3.2952443315950458e-03 -7.2161536433483109e-02 1.2802873640734919e-02  4.3340047826867512e-03 -7.9876061401432316e-02 1.6907688956184729e-02  3.8384103006175417e-03 -8.0311253626604365e-02 1.9191035884018898e-02  4.9117404419503127e-03 -8.0600482205801086e-02 1.9712208568254237e-02  3.7709906370209582e-03 -7.9314396636985848e-02 1.4111993827704741e-02  2.7483311445722297e-03 -7.8955439356092880e-02 1.3699597163857141e-02  2.7558468383394371e-03 -7.1411448232746019e-02 1.0407067159158623e-02  3.2341107768877422e-03 -7.8898614202582679e-02 1.1234701357044045e-02  2.2344639764946272e-03 -7.8532717120173359e-02 1.0882030926867067e-02  2.2396979163726871e-03 -7.0860804676559086e-02 7.9359709147833919e-03  2.7201902487540819e-03 -7.8621004427406618e-02 8.2138729129949215e-03  4.8636406065491813e-03 -8.7426924379024343e-02 2.3479609790108130e-02  3.7167811691699100e-03 -8.6535728089062583e-02 2.2534770788874375e-02  4.2599166329528220e-03 -8.7234222410491974e-02 2.5600103911835637e-02  5.4120040902213909e-03 -8.7982523618451033e-02 2.6538395481910487e-02  4.3133571486713412e-03 -8.6957012506037004e-02 2.0540898774444909e-02  3.1786562006087880e-03 -8.5975380290265330e-02 1.9594926334356472e-02  3.7755998641227457e-03 -8.6576149704080591e-02 1.7594944212997180e-02  2.6566356034222393e-03 -8.5542390043377936e-02 1.6662482109001078e-02  3.2659410574099267e-03 -8.6299351419156567e-02 1.4542823277504432e-02  2.1596298529457988e-03 -8.5235307733320692e-02 1.3642770979540154e-02  1.7453025984896253e-03 -7.8260994559997812e-02 7.9198378969501486e-03  2.7984039180336470e-03 -8.6177047332445661e-02 1.1328408098480808e-02  1.6981151550840938e-03 -8.5032631674382242e-02 1.0465298925636572e-02  1.3598459285082491e-02 -9.2531595715999032e-02 3.4221686373089887e-02  1.3708742113333623e-02 -9.9998992093704012e-02 3.9299012434204687e-02  1.2933421826561516e-02 -9.7659702859258554e-02 3.7138068009289420e-02  1.1772411668899483e-02 -9.6126350030165605e-02 4.0364114137881810e-02  1.2544197760516631e-02 -9.9092708487607831e-02 4.1779072451532805e-02  1.2237397336161729e-02 -9.0679518935370865e-02 3.7846913820812518e-02  1.0912528447948929e-02 -8.8570808233025350e-02 4.0929091611634293e-02  1.1416177492059202e-02 -9.7748675790289313e-02 4.3812160527800570e-02  1.0653852402194613e-02 -9.4264408320922546e-02 4.3084206276123291e-02  9.6127783147738517e-03 -8.6149584977238000e-02 4.3675542307452936e-02  1.0282237449765438e-02 -9.5981129468527202e-02 4.5538921375276258e-02  9.5269171259511048e-03 -9.2035354518723675e-02 4.5464974794896383e-02  8.3043895579638372e-03 -8.3335102013219656e-02 4.6250244999390747e-02  9.1356095919850906e-03 -9.3758847101349407e-02 4.7054553463676568e-02  8.3816989512185101e-03 -8.9381076076866878e-02 4.7659905118951060e-02  6.9590815818878667e-03 -8.0020606959815568e-02 4.8838358794017558e-02  7.9494851418492173e-03 -9.1011930849812170e-02 4.8434253050747299e-02  1.1271728312594624e-02 -8.6383708968912551e-02 3.5928979545517700e-02  9.9076115096786346e-03 -8.3805383342213075e-02 3.9483643280254103e-02  1.3437084364984904e-02 -1.0042298223679599e-01 4.2163288219276868e-02  1.2675449412677176e-02 -9.5678985761592436e-02 3.9007582376898532e-02  1.2151630469507591e-02 -9.9137133525386445e-02 4.1040056295545024e-02  1.1362263284702759e-02 -9.9942848581303104e-02 3.9162182263338813e-02  1.1805791795750958e-02 -9.6466164349586936e-02 3.6794902328625659e-02  1.2516603774299152e-02 -1.0117270640953191e-01 4.1197312396093706e-02  1.0538554631308161e-02 -1.0022609092622693e-01 3.7490529239726227e-02  1.0892291554537163e-02 -9.6817163816952004e-02 3.4838209391608525e-02  1.1566814269825030e-02 -1.0132487907733849e-01 4.0309300483414877e-02  9.6899547736637361e-03 -1.0014158728228749e-01 3.5831596736091570e-02  9.9618986891739508e-03 -9.6835902480088831e-02 3.2927778704816349e-02  1.0593735997488066e-02 -1.0102422366052263e-01 3.9357884729156155e-02  8.8343808354741944e-03 -9.9792080861957469e-02 3.4013215069992046e-02  9.0243842769037620e-03 -9.6631537631483036e-02 3.0872848256943447e-02  9.6084370943690274e-03 -1.0037117787982730e-01 3.8208043361095477e-02  7.9907332857975626e-03 -9.9265815149737674e-02 3.1871347175247422e-02  8.0881564331196712e-03 -9.6299126242310268e-02 2.8492812182271791e-02  8.6242771283713757e-03 -9.9444910517372420e-02 3.6709905589026703e-02  7.1786352944209052e-03 -9.8648016279723805e-02 2.9247028163517583e-02  7.1636198708012466e-03 -9.5941491959318032e-02 2.5625486473757449e-02  7.6646458203545945e-03 -9.8310015352187571e-02 3.4683516466839856e-02  6.2220761626355196e-03 -9.4949027946063996e-02 3.4400846303026381e-02  5.2115946564693328e-03 -9.4902249525660898e-02 3.3618859867007300e-02  6.7408921470696846e-03 -1.0131164415840543e-01 3.9483972793140372e-02  6.3572435927655201e-03 -1.0188999730636021e-01 3.6580916743954792e-02  4.7524798208485241e-03 -9.4718608430520698e-02 3.0222113768252290e-02  5.7405596150927850e-03 -9.4811863337401367e-02 3.1102272684930345e-02  5.9437192367290757e-03 -1.0211471871551410e-01 3.4038069152500058e-02  4.2617310815085815e-03 -9.4544581696131308e-02 2.7197482900111616e-02  5.2270096079666695e-03 -9.4626839701818774e-02 2.8118409747008855e-02  5.4986885173068621e-03 -1.0213647943924553e-01 3.1611544092755635e-02  3.7667248879267069e-03 -9.4372000445415757e-02 2.4300073352268334e-02  4.7099202809035507e-03 -9.4418547303717834e-02 2.5253584828624536e-02  5.0383954423747447e-03 -1.0205718397603747e-01 2.9093407574674730e-02  3.2744916469311133e-03 -9.4225633728039868e-02 2.1356927356096022e-02  4.1948497061432919e-03 -9.4221491874129579e-02 2.2354598885274538e-02  4.5713059985315503e-03 -1.0197433853151201e-01 2.6324261967234006e-02  2.7936290071735644e-03 -9.4155452109424442e-02 1.8243538751232087e-02  3.6941954808722734e-03 -9.4082319193961220e-02 1.9309465087712419e-02  4.1004694116427700e-03 -1.0197862815341412e-01 2.3171375606934320e-02  2.3428398640299125e-03 -9.4242786200153472e-02 1.4878332064328889e-02  3.2251480436675545e-03 -9.4051924387530114e-02 1.6029882474578750e-02  1.5277925528668031e-02 -9.7314085852680018e-02 4.0613866329881704e-02  1.4022881105926767e-02 -9.7471925366092768e-02 4.0691618248283427e-02  1.4733884002344082e-02 -9.9983760680130818e-02 4.1607994089681404e-02  1.3633095055520822e-02 -1.0040293161006601e-01 4.1812794373528320e-02  1.3013501646685985e-02 -9.8327070060078139e-02 3.9374354913112780e-02  1.4120924736059536e-02 -9.7952023011003725e-02 4.0259028225811566e-02  1.2511163639778632e-02 -1.0023446440436391e-01 4.1897362984362946e-02  1.1981250218197516e-02 -9.8603966081395752e-02 3.8191288656901683e-02  1.2940185748270324e-02 -9.8003445725903984e-02 3.9888132613670808e-02  1.1372821978242832e-02 -9.9579219788369061e-02 4.1821507163383238e-02  1.0929578913209975e-02 -9.8454425627336639e-02 3.6970746669341331e-02  1.1742109293936700e-02 -9.7591230173910873e-02 3.9401897841430243e-02  1.0218629689437842e-02 -9.8503090166202081e-02 4.1521105951775009e-02  9.8641958596927554e-03 -9.7983583776135211e-02 3.5559480522182531e-02  1.0524824026046002e-02 -9.6790953244207473e-02 3.8701881331516530e-02  9.0495752177170187e-03 -9.7037203339563893e-02 4.0902193736003629e-02  8.7939464902572033e-03 -9.7276220388720747e-02 3.3793736726640336e-02  9.2901282079843675e-03 -9.5648907428646984e-02 3.7659986786551219e-02  7.8675395167428861e-03 -9.5190718841198646e-02 3.9819666883444363e-02  7.7314291334080708e-03 -9.6413250001720352e-02 3.1508355534836809e-02  8.0509439819650905e-03 -9.4190556934304961e-02 3.6103673089306933e-02  1.3894423079828811e-02 -1.0245653987826775e-01 4.2583583004062488e-02  1.2883459494031236e-02 -1.0451206153564062e-01 4.3688926909314710e-02  1.3383680661325436e-02 -1.0345965973035436e-01 4.2220784311542497e-02  1.2402881528938431e-02 -1.0320914472688857e-01 4.3619844350043652e-02  1.2036884992744900e-02 -1.0478118657214995e-01 4.3986972251735056e-02  1.2889765656611110e-02 -1.0269816916575535e-01 4.3077988923522943e-02  1.1411567654958113e-02 -1.0242893552789806e-01 4.4722651478916707e-02  1.1152251073206885e-02 -1.0445588119303931e-01 4.4166439047934263e-02  1.1871732593842381e-02 -1.0235605837708289e-01 4.3421484541656521e-02  1.0403602735053261e-02 -1.0117184279454873e-01 4.5584940050110517e-02  1.0242829229980578e-02 -1.0363149823585058e-01 4.4191112513726163e-02  1.0834995313403786e-02 -1.0152256366082879e-01 4.3584705236721151e-02  9.3768514648092348e-03 -9.9460625905546524e-02 4.6218220116850534e-02  9.3162518504065484e-03 -1.0237561843269893e-01 4.3997849134796950e-02  9.7823813035466979e-03 -1.0025382047570421e-01 4.3522102796864665e-02  8.3350880619157876e-03 -9.7275486821847904e-02 4.6608691562595783e-02  8.3845221475227355e-03 -1.0072611869341422e-01 4.3490784547440153e-02  8.7206495925464290e-03 -9.8570185637407479e-02 4.3157709406501300e-02  7.2960205552793783e-03 -9.4533546209913014e-02 4.6707185073689900e-02  7.4734825577634787e-03 -9.8721917493563988e-02 4.2520461044110537e-02  7.6711157207058744e-03 -9.6459839643018061e-02 4.2359891494080523e-02  1.4643009316942974e-02 -7.8366231494301206e-02 2.6823261174141681e-02  1.3393790092282681e-02 -7.8234747513925174e-02 2.3875814904442634e-02  1.2177409353092182e-02 -7.8093821043476924e-02 2.1292315814955543e-02  1.0979567509525466e-02 -7.7935587755561531e-02 1.8835896961807933e-02  9.7895344610830475e-03 -7.7787371267283162e-02 1.6332297807550279e-02  1.1222274599273918e-02 -9.3954546171809483e-02 3.7104127807186395e-02  1.0450801752724240e-02 -9.4492695490385650e-02 3.4290445347556250e-02  9.6595635202833333e-03 -9.4743298351164448e-02 3.1810001210357410e-02  8.8522965335408200e-03 -9.4770341756027512e-02 2.9438258601358878e-02  8.0406184994136157e-03 -9.4662735676839360e-02 2.6976293096626615e-02  7.2375320827211776e-03 -9.4501585879884900e-02 2.4256400283109072e-02  6.4613888602971922e-03 -9.4352195091468846e-02 2.1122359489401749e-02  5.9351722382198178e-03 -8.8653409587533871e-02 2.9839756824158698e-02  4.7814344800703804e-03 -8.8089418853188647e-02 2.8943107730988248e-02  1.1972022775794872e-02 -1.0474102482648834e-01 4.4091002187114287e-02  1.2343340677352422e-02 -1.0591517125459406e-01 4.3923054113746925e-02  1.1551691265329457e-02 -1.0593662417222097e-01 4.4744680617514423e-02  1.1253991701029368e-02 -1.0531360538956100e-01 4.3529401414810334e-02  1.0739064408370849e-02 -1.0537291106350111e-01 4.5378124873036878e-02  1.0491027307513681e-02 -1.0528050633143617e-01 4.2970013646648833e-02  9.8921199635522809e-03 -1.0430981720804088e-01 4.5812654783635214e-02  9.6968590610711867e-03 -1.0477785970208123e-01 4.2306776737099469e-02  9.0189146429588002e-03 -1.0279788444956660e-01 4.6020971937264531e-02  8.8874092513932714e-03 -1.0389659679762964e-01 4.1426671780657696e-02  8.1233907967559697e-03 -1.0085217596044217e-01 4.5943986175128154e-02  8.0772012854864184e-03 -1.0270800694503494e-01 4.0204959718576891e-02  7.2090739033208538e-03 -9.8457752370593343e-02 4.5471661273568914e-02  7.2873095618323563e-03 -1.0129824342064411e-01 3.8530272077579683e-02  7.8701450595266217e-03 -1.0996445987998385e-01 4.5231900647870846e-02  7.6688649064071239e-03 -1.1071817075279547e-01 4.4131689345198385e-02  7.3680154184050956e-03 -1.1088008742242386e-01 4.3142780590980846e-02  7.0083347483233171e-03 -1.1058563808655625e-01 4.2121397930832381e-02  6.5949338773388473e-03 -1.0995795092809123e-01 4.0902028368399311e-02  6.1314535982836989e-03 -1.0910207792085050e-01 3.9299068982376430e-02  5.6186737898016913e-03 -1.0813045735470271e-01 3.7069831727348866e-02  1.6246469523844276e-02 -9.5587559137098835e-02 3.9275277830372379e-02  1.5664796841255133e-02 -9.7549277434202761e-02 3.9579457219008282e-02  1.4351686114482265e-02 -9.7483043104618597e-02 4.0839071439522583e-02  1.4927101697792175e-02 -9.5872676845420973e-02 3.9865228567268755e-02  1.3619487380805024e-02 -9.5614258850081152e-02 4.0271066032875794e-02  1.3070556833682233e-02 -9.6884751429113805e-02 4.1811215574385149e-02  1.2289112954562986e-02 -9.4896536759233846e-02 4.0493953066387284e-02  1.1773427212268909e-02 -9.5817726030292302e-02 4.2546809323555743e-02  1.0929501013816654e-02 -9.3766029823592861e-02 4.0490682132120953e-02  1.0454557935992001e-02 -9.4301166427426711e-02 4.3049637230663768e-02  9.5328491389873593e-03 -9.2222104306932409e-02 4.0194832202139125e-02  9.1051325394621001e-03 -9.2312878563073172e-02 4.3304510972676104e-02  8.0986829498651876e-03 -9.0208341767022637e-02 3.9536174769011272e-02  7.7180601787573549e-03 -8.9814769101737107e-02 4.3284671657486028e-02  8.0281314536271471e-03 -1.0392042792959091e-01 4.1983895945379157e-02  7.7809787248963027e-03 -1.0597717415442326e-01 4.3176000480910817e-02  9.0125206714458846e-03 -1.0841882151506155e-01 4.5242077507816079e-02  8.6733453740123773e-03 -1.0919279041343255e-01 4.4183131572860836e-02  7.4605456012921158e-03 -1.0681968578200736e-01 4.1134084413784140e-02  7.6451958440978979e-03 -1.0471384458419099e-01 3.9679262018528200e-02  8.2636253153180652e-03 -1.0933529145559202e-01 4.3237011379895648e-02  7.0865615521128640e-03 -1.0712577952556601e-01 3.9352852379983767e-02  7.2217570953569061e-03 -1.0502224435201551e-01 3.7708868439075845e-02  7.8001889745359558e-03 -1.0901832301029789e-01 4.2250971341756670e-02  6.6660207930785767e-03 -1.0707292509991884e-01 3.7622000726771708e-02  6.7592022747558107e-03 -1.0501266642424111e-01 3.5793390289641840e-02  7.2928179877847724e-03 -1.0837061425537135e-01 4.1061820268281035e-02  6.2111236644585670e-03 -1.0679103568358633e-01 3.5725804142124742e-02  6.2740823500964330e-03 -1.0480721241110454e-01 3.3724239913986119e-02  6.7473855665551108e-03 -1.0750437674364324e-01 3.9486379726231660e-02  5.7265263536633989e-03 -1.0640811883863215e-01 3.3478292695847005e-02  5.7775270784095820e-03 -1.0454125399847963e-01 3.1324989883654307e-02  6.1659251196870555e-03 -1.0653096204587971e-01 3.7313014506608982e-02  5.2092242006913933e-03 -1.0610071862562245e-01 3.0728390402685570e-02  5.2848519102945300e-03 -1.0440764352152770e-01 2.8457920269045110e-02  1.5653677227582229e-02 -7.2921851194456155e-02 2.5019648445736967e-02  1.4585907322120036e-02 -6.7827468336429525e-02 2.2485071115078560e-02  1.3863210567489190e-02 -7.0260087602015020e-02 2.9044883928900370e-02  1.1972333657683482e-02 -6.7626931351419478e-02 3.2548574365591748e-02  1.0121411321332961e-02 -6.4873708276170408e-02 3.5778610851262702e-02  8.3903200711475927e-03 -6.1890776035910998e-02 3.8930388150394103e-02  6.6587431747553247e-03 -5.8539008649466866e-02 4.2231042867550882e-02  4.8439145941923745e-03 -5.4672897858297771e-02 4.5898089825709004e-02  1.6298063298711651e-02 -9.1708366399926661e-02 3.7939232719839802e-02  1.5948915589061419e-02 -9.4592198755111878e-02 3.9370752085061710e-02  1.6793151001474136e-02 -9.3027815436947769e-02 3.8273100048124523e-02  1.5421052905532707e-02 -9.3427740850779969e-02 3.8623762103786992e-02  1.4732504954842320e-02 -9.5298963329349021e-02 3.8890167253430745e-02  1.5018789182035216e-02 -9.2523174025617536e-02 3.7159633063684305e-02  1.3726787358229183e-02 -9.2758293486444598e-02 3.6470791987773692e-02  1.3484304507187251e-02 -9.5445958341616052e-02 3.8416658222793068e-02  1.4061166730567827e-02 -9.3286679845208526e-02 3.8836598636059462e-02  1.2414686608771028e-02 -9.2575005674557342e-02 3.5736032580580987e-02  1.2218701476582036e-02 -9.5145404705313338e-02 3.7862082120160137e-02  1.2680582036324238e-02 -9.2697195001866350e-02 3.8901469620771595e-02  1.1073601860436934e-02 -9.2063299254282291e-02 3.4814732154741658e-02  1.0927071439061554e-02 -9.4483239207952430e-02 3.7110597305197564e-02  1.1264339354310361e-02 -9.1719616034292475e-02 3.8755747395267916e-02  9.6095762252065894e-03 -9.3514667097741033e-02 3.6010600375044818e-02  9.6865811337550449e-03 -9.1297158616982538e-02 3.3527067866291421e-02  9.7934292300782093e-03 -9.0365768374771491e-02 3.8305010060734862e-02  8.2156698325909824e-03 -9.0355063026821905e-02 3.1642893334338923e-02  8.2336172852107443e-03 -9.2224217963530961e-02 3.4342387610500659e-02  8.2356019993