<?xml version="1.0"?>
<VTKFile type="UnstructuredGrid"  version="0.1"  >
<UnstructuredGrid>
<Piece  NumberOfPoints="921" NumberOfCells="3950">
<Points>
<DataArray  type="Float64"  NumberOfComponents="3"  format="ascii">11.46892205299309 4.301208142175684 3.08090688625695  11.37000375638554 4.349523708371754 2.983870844722425  11.36544525144734 4.276637964502956 3.107919623244493  11.35916717826773 4.345166885842662 3.147169417192552  11.36388640887053 4.420220700677074 3.019984424943979  11.46368309913316 4.373013678076815 3.121031471721833  11.35294932879273 4.413469712417222 3.185795245846503  11.35782236698266 4.490544359314971 3.05549532962943  11.45852764669901 4.444339118412499 3.160758522521514  11.34695138583056 4.481364189373251 3.224072172692272  11.35192759058436 4.560367163777624 3.090622813720131  11.45353739719314 4.515106408974897 3.20021568868128  11.34117736896864 4.548844577288458 3.262130697974525  11.3462512420716 4.629696071912051 3.125479072141496  11.44877266035393 4.585365490979004 3.239381133456053  11.33559679110555 4.615938557273944 3.300059196556118  11.34083338149776 4.698539108146708 3.160176042499225  11.44410902371752 4.655153510092348 3.278344168140169  11.33017397634872 4.682652950401079 3.338028920928359  11.33565238584362 4.766849055472982 3.1949258118366  11.43969428562951 4.724624515235171 3.317067988587807  11.24835274496754 4.284323615349476 3.075525542826874  11.23931763410547 4.350151996269473 3.112105454596856  11.23033097601114 4.415811504195858 3.14792540582076  11.22153749144908 4.481193771934572 3.183374318882702  11.21296747614926 4.546216097133716 3.218621554453655  11.204646607344 4.610831315547778 3.25377488178647  11.19643309609351 4.674854146219026 3.289053519689376  11.57968909449776 4.172444903414744 3.286354144223992  11.47327957716026 4.244717834837856 3.179852870983885  11.46584009184255 4.163270913514527 3.291987766139888  11.46317770359644 4.229539496590458 3.340264354185062  11.46934693599292 4.314103965455496 3.224379609932178  11.57908063311549 4.240619149141441 3.337602613167407  11.46054360440962 4.295488106048953 3.388316862944234  11.46555447264765 4.383019063671678 3.268562266154215  11.5785674460741 4.308120060166974 3.389109041573052  11.45791801962162 4.36118489969384 3.436130901575895  11.46194847995987 4.451489953576115 3.312542699906551  11.57798354237897 4.375198144175794 3.44068194378512  11.45533848784068 4.426758430327775 3.483776139729026  11.45843164688996 4.519499320124066 3.356350664435209  11.57732431644398 4.441961382013037 3.492246276241959  11.45272455923953 4.4922964873907 3.531298957290003  11.45502647685232 4.58718796939961 3.399837396372932  11.57660232512435 4.508691637170283 3.543483054410919  11.45017844204175 4.557983434261133 3.578467432114208  11.4517183022992 4.654786114661494 3.442900688990457  11.57586582324338 4.576052041155287 3.593683876800158  11.3707703739265 4.225218161081278 3.19769369704985  11.36542526449432 4.2919953512064 3.240409874250699  11.36014028522537 4.358600187732889 3.282518547554118  11.35507837542638 4.424881731493211 3.324321016947902  11.35014768472766 4.490872197406844 3.365923677020922  11.34536930485709 4.556630990534407 3.407403313984672  11.34063002258987 4.622143592453204 3.448840209319417  11.25512887427081 4.343106572730402 2.968896499964971  11.24594536812884 4.411174683712209 3.001966253957212  11.23686027349959 4.478936089936285 3.034354282454161  11.227956767562 4.546306515221777 3.066301389173856  11.21929919456702 4.613255453618698 3.097973009636064  11.21090791027077 4.679728584826071 3.129543555856404  11.20272702117186 4.745612351625113 3.161320224263769  11.58117639303048 4.230421745189482 3.491246727949935  11.69600000000076 4.139887982183489 3.592620020421385  11.58055641204112 4.134254399268258 3.589210212983818  11.69600000000093 4.079893050619881 3.527921406033551  11.58178568710586 4.16647950057361 3.435025634113892  11.58037113442438 4.192256100092409 3.651462347335186  11.58063276455888 4.294295045869469 3.547464320721534  11.6960000000008 4.199752515038924 3.657591164052785  11.14486661161274 4.328910184804967 2.962724839006761  11.12916727322986 4.268203181018648 3.068848539405006  11.11719779347042 4.330814119027186 3.103461462344454  11.13388324762519 4.393499704926859 2.995146651330593  11.10532442116261 4.393274116672766 3.137311453914725  11.12298830373007 4.457764408923333 3.026827297067253  11.09364301932487 4.455522748772697 3.170782934022009  11.11223874718365 4.521725714227555 3.05811555137517  11.08217407345345 4.517486690919547 3.204049098764043  11.10167941080807 4.585319441172738 3.089178506320033  11.07089265224134 4.57909861406251 3.237272480519174  11.09134854257351 4.648482376472756 3.120178904267783  11.05966140965934 4.640206487313538 3.270765192062108  11.08119373996739 4.711057252203371 3.151412720359668  11.6960000000009 4.410101460490633 2.872922651689246  11.58410466219383 4.453897222140741 2.765877069424879  11.58112192766233 4.406319184431201 2.878742172810419  11.57963972447213 4.485579305390669 2.913866204180078  11.58273717956892 4.535535596516289 2.797014446561447  11.6960000000009 4.493314026152431 2.908760101754984  11.57803561141597 4.564001298594833 2.948909444247846  11.58118278371759 4.616373644762806 2.827814578464232  11.6960000000009 4.575285696422172 2.944873035051698  11.57658601136019 4.641545633915706 2.98372990964197  11.57989418899154 4.696349388028111 2.858126261640756  11.6960000000009 4.656282058051765 2.980740608365044  11.57534923016679 4.718306256655557 3.018333502116989  11.57900235847329 4.775532078270702 2.888063414824368  11.69600000000117 4.736650665091468 3.016136661644445  11.57429338575892 4.794373676236018 3.05280004565037  11.57824100500957 4.85399343035171 2.917943773496897  11.69600000000117 4.816337691506861 3.051462530088933  11.57353303649209 4.870036258040972 3.087054861308359  11.57756384996271 4.932081444097992 2.947728215142465  11.69600000000118 4.895844964373726 3.086546701140703  11.46521325673613 4.485571338891823 2.663534369583286  11.47408361652925 4.448009147625044 2.771454719028307  11.47083279683955 4.52609968625952 2.801671842785472  11.46112118185454 4.565200353632386 2.689866115324738  11.4674913217122 4.6034851197915 2.831366544639169  11.45695805337444 4.644140224029875 2.71571803776297  11.464342595249 4.680126020083367 2.86062265910061  11.45283325206112 4.722243660180356 2.741080116467642  11.46159805886698 4.756036945479408 2.889459178409942  11.44886041898262 4.799543535122387 2.766118534797471  11.45914956795885 4.831184486772321 2.918166071956755  11.44524995544036 4.876126944013462 2.791121462868928  11.4570797549641 4.905741644180542 2.946877511548016  11.44212380196595 4.952009452099114 2.816388700402586  11.58444337248377 4.240799244102333 3.18736462675164  11.58421324029966 4.311599631536141 3.235849600660918  11.58395735772116 4.38146003357384 3.284641436134823  11.58380551744355 4.4506756629657 3.333455604256558  11.58372921315986 4.519381046978777 3.382114341609127  11.58375197556483 4.587794504007434 3.430332807354123  11.58372198302297 4.656435370202066 3.477597598084584  10.47860723698679 3.928558189886968 3.308431541787129  10.36118986532486 3.907990475051471 3.302475159805783  10.46673425603013 3.868380203218329 3.3966738197255  10.45477491629049 3.917869537387629 3.431905474906636  10.35077702211417 3.958105093484964 3.333568754948414  10.46588437028027 3.97833449585129 3.340553396755782  10.44294662763792 3.967587654677268 3.467084785659241  10.3404692191186 4.008393813366372 3.364617409851433  10.45329561632337 4.028326241482811 3.372612729338906  10.43109934099477 4.017438633170357 3.502342728683554  10.33015162441887 4.058814231481336 3.395744040456969  10.44071244940665 4.078440879971421 3.404722468251649  10.41919553852063 4.067393708980203 3.537695131651466  10.31978989567081 4.109345267552897 3.426958180700399  10.42808476972245 4.12863635152249 3.436906373823825  10.40717316136161 4.117433878735234 3.573172357644894  10.3093413100273 4.15998571923384 3.458286452962535  10.41534486814403 4.178881574274385 3.469200856536849  10.39497834622502 4.16755774041655 3.60881216141247  10.29876956796837 4.210746902126964 3.489759883616857  10.40240567842289 4.229182199372072 3.501677048075291  10.48926123467354 4.388314985967509 2.411237332479705  10.40208009128012 4.331860625918227 2.4763629117964  10.48567897215851 4.354232177608753 2.500898326243419  10.46636511687101 4.407672809142079 2.520508094823391  10.38221940090708 4.384118228694644 2.495194810620078  10.46956295501428 4.443433241467542 2.428756150872295  10.44746763280643 4.460995666958494 2.539894814533755  10.3627808119772 4.436344026433873 2.513849278239828  10.45035052312429 4.498398243088202 2.446094973963883  10.42885596202192 4.514094834785382 2.559135313407077  10.34359834088847 4.48844056872116 2.532388322442953  10.4314416801151 4.553104602224405 2.463324113885564  10.41036516131946 4.566950892317432 2.578297139309434  10.32451683843482 4.540347055275948 2.550864324747919  10.41266073517049 4.607525041019787 2.480483533311391  10.39183310285208 4.619529799710624 2.597363438316216  10.30539298958422 4.591980851101928 2.569307391989274  10.39380766226396 4.661623405105322 2.497506266404143  10.37304862599793 4.671753817498329 2.616357660679483  10.28599647501574 4.643251890611413 2.587649869447342  10.37468250415347 4.715285882330643 2.514435208820514  11.46580652736781 4.094561953278747 3.382878526848265  11.35029030409351 4.095729317781872 3.377571696131348  11.34573011013955 4.157411457740709 3.426939963617716  11.46404154757028 4.156529248525016 3.436697622966185  11.34110950810685 4.219191026369195 3.475825699243452  11.46214960871955 4.218326003288025 3.490420345417471  11.33660344227252 4.280893650867897 3.524454905198434  11.46026311645474 4.280045152112219 3.543937204754859  11.33223904693407 4.342535387367573 3.57290775462985  11.45851720688846 4.341784223617501 3.597220027672185
[...]
<PointData  Vectors="f_16"> 
<DataArray  type="Float64"  Name="f_16"  NumberOfComponents="3" format="ascii">-6.6083581265878460e-02 9.2416817936805409e-02 6.3298471869831941e-03  -6.6174818069287752e-02 9.7825963940159563e-02 9.7368747718322244e-03  -6.6593005484732862e-02 9.2734375496771007e-02 6.1076218110060546e-03  -6.5050419398247891e-02 9.0495265263844771e-02 9.5201663132278309e-03  -6.4615429873035882e-02 9.6454839495716871e-02 1.2161402812335749e-02  -6.4881135449787783e-02 9.0230833588275022e-02 9.6599993705130723e-03  -6.3561463115532763e-02 8.8188604255835093e-02 1.2488875175594294e-02  -6.3153056077012479e-02 9.4872243065187892e-02 1.4176243549553359e-02  -6.3681958798049151e-02 8.7963820764736411e-02 1.2457035430821242e-02  -6.2137896688204276e-02 8.5750371345428303e-02 1.5180132542893091e-02  -6.1739733295758173e-02 9.3065310540392382e-02 1.5971445798928709e-02  -6.2538237104518182e-02 8.5547515844993385e-02 1.4981421422877211e-02  -6.0722500476391980e-02 8.3163225136066971e-02 1.7718337412437220e-02  -6.0321706935065326e-02 9.1058901468452746e-02 1.7623981578966313e-02  -6.1407570038090130e-02 8.2981578688993959e-02 1.7363969906021633e-02  -5.9263646044966194e-02 8.0409978113498384e-02 2.0195622219090773e-02  -5.8849077841729686e-02 8.8867966455367681e-02 1.9198747100376976e-02  -6.0244329236613277e-02 8.0250183911091108e-02 1.9703039264476752e-02  -5.7711688991718170e-02 7.7437655823296786e-02 2.2679226691999975e-02  -5.7279794735848773e-02 8.6538523658169900e-02 2.0751097912278457e-02  -5.9016844919706046e-02 7.7334245893368236e-02 2.2066663026939118e-02  -6.6832186625942674e-02 9.6619190950803874e-02 8.1431799156900988e-03  -6.4958305956186124e-02 9.4818254921934034e-02 1.1313269584307570e-02  -6.3212932332450553e-02 9.2866871893975772e-02 1.4076723063481207e-02  -6.1519114398931783e-02 9.0747756535756022e-02 1.6577264789444841e-02  -5.9807727310253328e-02 8.8450976082851587e-02 1.8919894373015497e-02  -5.8019246524083225e-02 8.5964565441974436e-02 2.1183989905706701e-02  -5.6095100593377328e-02 8.3250732622854179e-02 2.3407981658933923e-02  -6.6895089842661640e-02 7.8653479356370612e-02 -3.3535116010097888e-03  -6.6411934630803554e-02 8.7106649595242391e-02 2.8330256357046602e-03  -6.7026627514572390e-02 7.9621788940371654e-02 -2.4935230937693509e-03  -6.5661250272481542e-02 7.5609768187717072e-02 1.7824029694924225e-03  -6.5208949331654179e-02 8.4034029424093298e-02 6.7438880481720757e-03  -6.5834186551258833e-02 7.4398422624049540e-02 1.1025736646486253e-03  -6.4375606400074364e-02 7.1800223243395550e-02 5.6227181564348699e-03  -6.3962554152580758e-02 8.1013962549483856e-02 1.0140373996536981e-02  -6.4767598695777154e-02 7.0283023766148728e-02 5.0573010304175506e-03  -6.3128256375825906e-02 6.7998996732294106e-02 9.2162533317563210e-03  -6.2801180642820573e-02 7.7897951396807288e-02 1.3257741452257622e-02  -6.3762614514416449e-02 6.6246276427986500e-02 8.7033066968455631e-03  -6.1966137973306058e-02 6.4169565920170937e-02 1.2699838061814284e-02  -6.1660244910060780e-02 7.4664747203576021e-02 1.6240831289913365e-02  -6.2839176036773817e-02 6.2139118023709326e-02 1.2218455676739941e-02  -6.0786271995423725e-02 6.0225978457084217e-02 1.6228030084321911e-02  -6.0487262509582876e-02 7.1293922101109602e-02 1.9213427760041098e-02  -6.1906865349598723e-02 5.7910696326249525e-02 1.5774460885169119e-02  -5.9497399619534007e-02 5.6083307648750358e-02 1.9889701513641733e-02  -5.9233614128103497e-02 6.7792053494387036e-02 2.2260175780111292e-02  -6.0904511601274150e-02 5.3493431735273857e-02 1.9579766820921957e-02  -6.6724652923636094e-02 8.7447303729092304e-02 2.9483659284890592e-03  -6.5185294841175814e-02 8.4470664933176801e-02 6.8169858448849981e-03  -6.3720940462054232e-02 8.1526314154291860e-02 1.0269434539145236e-02  -6.2322256557916407e-02 7.8515282399778230e-02 1.3446478014475070e-02  -6.0938707199419059e-02 7.5389518899819194e-02 1.6497751568262636e-02  -5.9516229467480787e-02 7.2101631724676166e-02 1.9531158730192039e-02  -5.8009145185934703e-02 6.8617054415610154e-02 2.2643133413864348e-02  -6.6651696977103062e-02 1.0076837219779539e-01 1.0844070004826000e-02  -6.4738792920125923e-02 9.9715474360626666e-02 1.3147732579615764e-02  -6.2960039553800529e-02 9.8407805158125417e-02 1.5098585140505077e-02  -6.1232347979227698e-02 9.6875710090223430e-02 1.6809289135689524e-02  -5.9482923461595068e-02 9.5136828995377135e-02 1.8352205417485723e-02  -5.7653573359264257e-02 9.3204558360164169e-02 1.9786472115319347e-02  -5.5698568128595638e-02 9.1091879115668864e-02 2.1185782726077209e-02  -6.5264089909862585e-02 6.1230674545956897e-02 -9.9846438361001936e-05  -6.6654229353900071e-02 5.0383960810473027e-02 -7.8255295874409374e-03  -6.5821203182674898e-02 5.1949519933944782e-02 -6.8233558579968772e-03  -6.7795893247566005e-02 5.5895055725415851e-02 -1.1730156562738599e-02  -6.6398176337234341e-02 6.6028082535196181e-02 -4.1139728166992686e-03  -6.4691826887276704e-02 4.6642057093822416e-02 -3.1869365353497481e-03  -6.4176632086544491e-02 5.6544948060499534e-02 3.7557725452324283e-03  -6.5512642355004244e-02 4.5001504614649530e-02 -4.0076994915664906e-03  -6.7047901374413327e-02 1.0383695890459127e-01 1.1838023580612941e-02  -6.7075419414369744e-02 9.9835018127819405e-02 9.2666393059201244e-03  -6.4963077626425642e-02 9.8242993712516824e-02 1.2476526040868244e-02  -6.4865417710840326e-02 1.0293873934615898e-01 1.4157470413262851e-02  -6.3007594787846288e-02 9.6474707215669184e-02 1.5286630491132066e-02  -6.2865663942591465e-02 1.0174302565014762e-01 1.6145025376798364e-02  -6.1102625467409556e-02 9.4524177629308412e-02 1.7822473347107643e-02  -6.0919016182490314e-02 1.0029709055431714e-01 1.7891055653731201e-02  -5.9163927727019588e-02 9.2379814274857808e-02 2.0187150935570282e-02  -5.8935960665679736e-02 9.8624358771913251e-02 1.9466795040739046e-02  -5.7120904360298895e-02 9.0027813889050165e-02 2.2464008855411711e-02  -5.6848019332976826e-02 9.6740954611156296e-02 2.0932448048336043e-02  -5.4905398730297615e-02 8.7433883825042538e-02 2.4730748722837929e-02  -5.4604070710776269e-02 9.4661291070267967e-02 2.2352675880578647e-02  -6.3951191852453737e-02 9.6608226068893258e-02 1.0731454520419997e-02  -6.4187565997723406e-02 9.8275964809568794e-02 1.2109570601045299e-02  -6.4675018303792867e-02 9.7394084079717766e-02 1.0631673425431276e-02  -6.3885241994364031e-02 9.6341028248459373e-02 1.2404055252316082e-02  -6.3388645516377573e-02 9.7813292924571985e-02 1.2638168354898749e-02  -6.3589869505811150e-02 9.5547069663729639e-02 1.2569036253605248e-02  -6.3165287076019108e-02 9.5153280780080160e-02 1.3503364310758955e-02  -6.2664604789422804e-02 9.7134164276322821e-02 1.2674285351216020e-02  -6.3370970179451702e-02 9.4400809704000374e-02 1.3627902777400816e-02  -6.2531466591893778e-02 9.3712977217659532e-02 1.4433671174689229e-02  -6.2034197066425274e-02 9.6193280406554713e-02 1.2564097018155057e-02  -6.3246418027080392e-02 9.2985061511250966e-02 1.4510211776063195e-02  -6.1924527614217621e-02 9.2073341853267834e-02 1.5252753985221785e-02  -6.1433217035979371e-02 9.5051044769064910e-02 1.2325683976739785e-02  -6.3141608480602865e-02 9.1347079012472007e-02 1.5264867678791781e-02  -6.1308851287080399e-02 9.0243243945535720e-02 1.6009464754493604e-02  -6.0826760817846250e-02 9.3728571070586436e-02 1.1971028531868114e-02  -6.3037002556315794e-02 8.9496796490935365e-02 1.5953100688270348e-02  -6.0673498142256255e-02 8.8224939697296875e-02 1.6725962079078907e-02  -6.0208006879690315e-02 9.2248162642779505e-02 1.1514588990751766e-02  -6.2936078586208047e-02 8.7436230659328262e-02 1.6620829458308013e-02  -6.4481569525321733e-02 9.9212361934584853e-02 1.2888922382721171e-02  -6.4882935519624582e-02 9.9690796152838643e-02 1.2274922917507492e-02  -6.3650276000515205e-02 9.9303154690408110e-02 1.2787272821371768e-02  -6.3180602728766619e-02 9.9222928811944097e-02 1.2269164944130858e-02  -6.2503405403562376e-02 9.8666307023277541e-02 1.2898856924449434e-02  -6.1958091374262350e-02 9.8956739529856841e-02 1.1354962924147727e-02  -6.1422492903470072e-02 9.7758525001009386e-02 1.2863648077365902e-02  -6.0791291895141888e-02 9.8415302891009179e-02 1.0342088971135480e-02  -6.0361995357682482e-02 9.6636343335970376e-02 1.2698771046427335e-02  -5.9636669828731809e-02 9.7662217264080448e-02 9.1973884412191280e-03  -5.9283759682066554e-02 9.5333901505552557e-02 1.2424712986292559e-02  -5.8455198767507481e-02 9.6738931264642739e-02 7.9047169239074341e-03  -5.8166108568202528e-02 9.3869180726824264e-02 1.2059780483416525e-02  -5.7221351519931393e-02 9.5657090060099981e-02 6.4581696763378301e-03  -6.6132769778685679e-02 8.5342167250315112e-02 1.4445793694830066e-03  -6.5261865643977998e-02 8.1861789945961216e-02 5.5943446967443994e-03  -6.4343578196929124e-02 7.8427786223716531e-02 9.1170255979314656e-03  -6.3503713502358755e-02 7.4923813220309693e-02 1.2297060190015908e-02  -6.2704109561511456e-02 7.1317650656112105e-02 1.5347929878600966e-02  -6.1882192634641717e-02 6.7568985265965872e-02 1.8437401420825544e-02  -6.1022525336338680e-02 6.3663502531381339e-02 2.1653015154537898e-02  -6.0028068826043612e-02 9.4719720286415787e-02 -4.9244628100351972e-04  -5.8464910673866652e-02 9.7220298642529124e-02 4.2655423936574657e-04  -5.7459303153880169e-02 8.3330076270992509e-02 -5.5622041602471084e-03  -5.6036952567411265e-02 7.8512488434290525e-02 -4.5930936310528469e-04  -5.6870474617673569e-02 9.3077686025991174e-02 6.0727479852994044e-03  -5.8425008759208190e-02 9.0725249934534624e-02 4.8996904715998242e-03  -5.4648298842139703e-02 7.4135212050401744e-02 4.3213825322445882e-03  -5.5321653886960358e-02 8.9228902012467567e-02 1.1265669003498506e-02  -5.6854887938810883e-02 8.7011925106400462e-02 9.8386688685910603e-03  -5.3284312177976204e-02 6.9976305121208268e-02 9.0001215730932151e-03  -5.3785987126922181e-02 8.5464575749979038e-02 1.6233884475468918e-02  -5.5299348728625707e-02 8.3395006068085281e-02 1.4543374240245051e-02  -5.1953469630226422e-02 6.5833887528327750e-02 1.3755225770971543e-02  -5.2255505926005454e-02 8.1608470212022846e-02 2.1194610452147784e-02  -5.3750958929899471e-02 7.9706758296258604e-02 1.9215005971408128e-02  -5.0722389808488325e-02 6.1508392590228382e-02 1.8775755706326558e-02  -5.0720470646743912e-02 7.7497510371870790e-02 2.6360154435916543e-02  -5.2195279660857435e-02 7.5780536537772766e-02 2.4053150060523665e-02  -4.9542615538004459e-02 5.6879734138849294e-02 2.4275571731173704e-02  -4.9190645634128276e-02 7.2964385815677602e-02 3.1964042745408087e-02  -5.0627635784495792e-02 7.1440597603396744e-02 2.9240713836055369e-02  -6.4075399037048869e-02 1.2668485506915766e-01 2.0323177827244739e-02  -6.5072924396872664e-02 1.3382312336611704e-01 2.2942522877138317e-02  -6.5416275276357030e-02 1.3090898656850539e-01 2.1752906635452207e-02  -6.2895412589218838e-02 1.3278970472161092e-01 2.0307131346071736e-02  -6.2610234592944417e-02 1.3584395668960614e-01 2.1340115664421448e-02  -6.1745204791785177e-02 1.2859703457443422e-01 1.7779431614680215e-02  -6.0837951433687996e-02 1.3401977214958791e-01 1.8650380379707648e-02  -6.0648368631774419e-02 1.3719280909916007e-01 1.9503383433929131e-02  -5.9722572607451105e-02 1.2989240193780827e-01 1.5180273463929368e-02  -5.8683960496294492e-02 1.3478799930028346e-01 1.6870371927201363e-02  -5.8600981453392986e-02 1.3808455395277094e-01 1.7525459635337148e-02  -5.7596410585988557e-02 1.3074586714747680e-01 1.2518066076524906e-02  -5.6377184363030498e-02 1.3520862306435613e-01 1.4916174479484626e-02  -5.6380100241901508e-02 1.3861834719851648e-01 1.5372087295116381e-02  -5.5327605581293751e-02 1.3127513518364445e-01 9.7119948214646704e-03  -5.3864051558077976e-02 1.3537541749391571e-01 1.2731776078755971e-02  -5.3942243162521275e-02 1.3887998540322502e-01 1.2975938235806487e-02  -5.2878440546323312e-02 1.3157429258555015e-01 6.6886312711578336e-03  -5.1089746901588823e-02 1.3536555989584353e-01 1.0244270039022521e-02  -5.1234104758250631e-02 1.3894699519124859e-01 1.0244490466551216e-02  -5.0216325007846827e-02 1.3176429656854283e-01 3.3949456567983127e-03  -6.7329964606936951e-02 7.2146987752446892e-02 -7.1756895570190349e-03  -6.6832731547717766e-02 7.3889375264979407e-02 -5.2203304141811022e-03  -6.5281600826195954e-02 6.9513453949929166e-02 -1.1205952325319660e-03  -6.5923871383125665e-02 6.7291991504936810e-02 -3.0831954692045814e-03  -6.3884830194209555e-02 6.5423329765908547e-02 2.7024611855118634e-03  -6.4667696363305133e-02 6.2704060688066943e-02 7.2541900684068464e-04  -6.2573180190474031e-02 6.1399413632940394e-02 6.3912304168641000e-03  -6.3452788995044515e-02 5.8175082337244090e-02 4.3993325920273375e-03  -6.1337870235452202e-02 5.7309442993868920e-02 1.0039375135479324e-02  -6.2337791866127652e-02 5.3667203377107064e-02 7.9931696932518150e-03  -6.0120104736209268e-02 5.3096373182428235e-02 1.3749012437472317e-02  -6.1347122297454544e-02 4.9043423769671683e-02 1.1660425730840597e-02  -5.8831247649093268e-02 4.8675941692596467e-02 1.7614570977794359e-02  -6.0206646797411952e-02 4.4310914096571681e-02 1.5528122701249912e-02  -6.5786101893767351e-02 8.4318961170463280e-02 9.4140292080595843e-04  -6.5580325727378597e-02 9.0658533264309699e-02 5.5236518244549089e-03  -6.4741533346775501e-02 8.8107623555278916e-02 9.1289015960364841e-03  -6.5283728220964468e-02 8.0660768079241538e-02 5.3902318310813085e-03  -6.3913880003875503e-02 8.5538292789852366e-02 1.2000031383487460e-02  -6.4693193215662595e-02 7.7128637073277981e-02 8.9987483822415899e-03  -6.3162096838737983e-02 8.2838226305560370e-02 1.4579602421094009e-02  -6.4168713642835079e-02 7.3593048237152542e-02 1.2203339002652585e-02  -6.2428170161152048e-02 7.9986184417284348e-02 1.7053595026848417e-02  -6.3671321832346375e-02 6.9915960654973505e-02 1.5295161294234489e-02  -6.1670266886466533e-02 7.6951444635751431e-02 1.9534849346995398e-02  -6.3151033908069032e-02 6.6063592939219054e-02 1.8453147566726856e-02  -6.0879139381868869e-02 7.3745255336034155e-02 2.2126545772518567e-02  -6.2609477678147965e-02 6.1997806773969419e-02 2.1792529175662403e-02  -6.6722379055312059e-02 7.7349200237020410e-02 -3.9757685480639538e-03  -6.6056324405853878e-02 7.2917028426542560e-02 6.4860965762287485e-04  -6.5315015342860674e-02 6.8557105947590555e-02 4.7049149814835161e-03  -6.4512821376414731e-02 6.4268279074111506e-02 8.3680987061868148e-03  -6.3784599253711119e-02 5.9943566695190124e-02 1.1859033883910184e-02  -6.3046453760929433e-02 5.5448904569384665e-02 1.5435375146028715e-02  -6.2270447996571082e-02 5.0779644535361164e-02 1.9363781448546929e-02  -6.1551937549242319e-02 8.5706363511617256e-02 -2.6897071085663134e-03  -6.3345377717714257e-02 9.6810548852626244e-02 2.6634638580506063e-03  -6.0694504024780639e-02 9.0231377313124764e-02 -1.6985561736436287e-03  -5.9110679154186246e-02 8.6233247670405341e-02 3.4837981035549690e-03  -6.1568728140762356e-02 9.3538243726368597e-02 7.6106817657236895e-03  -5.9957984775077446e-02 8.1666721161472833e-02 2.2393647610542320e-03  -5.7549594298310615e-02 8.2529150039247531e-02 8.2353631169636860e-03  -5.9802574617079628e-02 9.0389137722613158e-02 1.2103927250928046e-02  -5.8400250946088320e-02 7.7926303277447206e-02 6.7747133463464497e-03  -5.6013593944134986e-02 7.8941406610521542e-02 1.2773644886686116e-02  -5.8073196251170744e-02 8.7247756705191665e-02 1.6310260738724030e-02  -5.6885266884665504e-02 7.4312430981493316e-02 1.1116097962156419e-02  -5.4493879232531003e-02 7.5302002647323077e-02 1.7296380110314230e-02  -5.6336724074155416e-02 8.3981049545306510e-02 2.0416593842101663e-02  -5.5400567426710602e-02 7.0657232690892774e-02 1.5444584420806312e-02  -5.2970083824462603e-02 7.1438782517498592e-02 2.1980968185523284e-02  -5.4547908071158141e-02 8.0468843936736575e-02 2.4583983533724842e-02  -5.3923898082513209e-02 6.6802457705784427e-02 1.9917703807763205e-02  -5.1454466608089666e-02 6.7178216918283684e-02 2.6982226261273189e-02  -5.2661496924057534e-02 7.6580992079837346e-02 2.8954420774550918e-02  -5.2507823125659901e-02 6.2577267448870807e-02 2.4693637190329736e-02  -6.7830286936650400e-02 6.9783561052006310e-02 -9.7943478270549767e-03  -6.6975766439030790e-02 6.4655527791332698e-02 -5.2508990639451927e-03  -6.6056273502819951e-02 5.9655452135000654e-02 -1.0611030379209219e-03  -6.5074633410050792e-02 5.4751276727374641e-02 2.8797046573466787e-03  -6.4108446072770151e-02 4.9865612858362308e-02 6.6753739346575225e-03  -6.3197641561884468e-02 4.4847829168844180e-02 1.0535169804538089e-02  -6.2174668073865562e-02 3.9760697759084591e-02 1.4753338755646467e-02  -6.3762177929302902e-02 9.7455630526439241e-02 1.2771199566009335e-02  -6.2901003480210035e-02 9.7412975915877387e-02 1.2109807349598897e-02  -6.2126590574675220e-02 9.7089670081411866e-02 1.1105908827964679e-02  -6.1441085608699653e-02 9.6496594696371202e-02 1.0011915123383302e-02  -6.0778372089474009e-02 9.5716526872173247e-02 8.7933684381418867e-03  -6.0112224206949311e-02 9.4776553219866277e-02 7.4165876342329063e-03  -5.9446049934534714e-02 9.3669924066922372e-02 5.8532563625236424e-03  -6.7301138556649209e-02 1.0738714445924014e-01 1.2964837643552253e-02  -6.4956521945144091e-02 1.0663545020437910e-01 1.5354689967397143e-02  -6.2807218882109120e-02 1.0556639707957560e-01 1.7398697447304424e-02  -6.0700927888513209e-02 1.0422348710269429e-01 1.9194904112947563e-02  -5.8537608298984370e-02 1.0263752979486303e-01 2.0813481994850277e-02  -5.6244722476804600e-02 1.0082353644429251e-01 2.2308710859497781e-02  -5.3756127503554102e-02 9.8792331804059025e-02 2.3736025252981990e-02  -6.3187835416336505e-02 5.1880964633106437e-02 7.4841430540729705e-03  -6.4458928597427745e-02 3.9651421797150838e-02 -2.4857139008273554e-04  -6.2267140965099575e-02 4.7048694724323423e-02 1.1266162092135460e-02  -6.3521053751275425e-02 9.7376540139959014e-02 1.2155717323946026e-02  -6.3069366523740358e-02 9.6405561434883463e-02 1.2956200938201837e-02  -6.2622775704672506e-02 9.6394983854746569e-02 1.2224449699197299e-02  -6.3111838364342102e-02 9.6924003272565812e-02 1.2789249243601900e-02  -6.2338322279274508e-02 9.6101308640352920e-02 1.1190435456921728e-02  -6.2897818197367658e-02 9.6286641811512919e-02 1.2819323945448860e-02  -6.2143579845739157e-02 9.5511559277966673e-02 1.0073105085486854e-02  -6.2768434501976486e-02 9.5349496815629500e-02 1.2719295001703337e-02  -6.1978088774372310e-02 9.4712978431857983e-02 8.8194652341834750e-03  -6.2663306241313013e-02 9.4178179923295774e-02 1.2485608924080094e-02  -6.1831059186917940e-02 9.3755827086618948e-02 7.3927416522443874e-03  -6.2562167532983923e-02 9.2805139261489741e-02 1.2135034550183079e-02  -6.1717873115422005e-02 9.2634614872862564e-02 5.7418790024084980e-03  -6.2473685868323185e-02 9.1248020153484766e-02 1.1678624818636886e-02  -6.4459148886579734e-02 9.4060379669229241e-02 8.4488886036284700e-03  -6.4083718020215993e-02 9.2251993678671540e-02 1.1432893614199007e-02  -6.3798714384880814e-02 9.0472153526318974e-02 1.3443198355092468e-02  -6.3613921222617942e-02 8.8458215917009794e-02 1.5233117049891796e-02  -6.3439464034024395e-02 8.6231899624006250e-02 1.6909783715168936e-02  -6.3259411261200438e-02 8.3803577225901926e-02 1.8580334814077122e-02  -6.3095164390863698e-02 8.1157537739674337e-02 2.0328334991830864e-02  -6.5005280961313666e-02 8.9919505790388002e-02 5.2495667044598114e-03  -6.4589454379825509e-02 8.7228796374500761e-02 9.1266694325586924e-03  -6.4208706096901297e-02 8.4620507487461610e-02 1.2016322469426761e-02  -6.3887104509102274e-02 8.1869494487511602e-02 1.4582730334172954e-02  -6.3571374195268787e-02 7.8923442108514485e-02 1.7048660057187602e-02  -6.3221115390962437e-02 7.5768418405514654e-02 1.9554630920151389e-02  -6.2834660774719997e-02 7.2459896649407357e-02 2.2266674180720741e-02  -6.7622063934307697e-02 7.1082785867904660e-02 -8.4345497474181200e-03  -6.1167741904467922e-02 4.2229135565087568e-02 1.5320433488806750e-02  -6.5379658488717837e-02 1.0491370316749689e-01 1.4391161002