<?xml version="1.0"?>
<VTKFile type="UnstructuredGrid"  version="0.1"  >
<UnstructuredGrid>
<Piece  NumberOfPoints="927" NumberOfCells="3967">
<Points>
<DataArray  type="Float64"  NumberOfComponents="3"  format="ascii">5.402918909482917 2.243528021096917 1.011976667639334  5.379425003637693 2.39572027624683 0.9652633235387037  5.52907998028894 2.384025407040352 0.967173068745708  5.528517355552086 2.366840169578951 0.9080577412460787  5.379442180700587 2.378303046256443 0.9061339070510999  5.402511587187947 2.225100416277317 0.9547785402576925  5.527884766860235 2.349753976245521 0.8490118247953485  5.379385759153642 2.360989018890285 0.8470700676502831  5.402044930328969 2.206799338754962 0.8976158315746752  5.527229949671312 2.332741298224752 0.7900379684662701  5.379294484131769 2.343760454752045 0.7880955098821724  5.401576074500954 2.188585030357211 0.840482127496155  5.379213770547203 2.326574388442459 0.7291911674153402  5.401118772057029 2.170404199749932 0.7834250302977354  5.526590182123279 2.315768056950167 0.7311523117410365  5.379156133055583 2.309364839388086 0.6704093878308425  5.400687746811999 2.152177514004141 0.7264612484444326  5.525980785606465 2.298768697023315 0.6723846511595915  5.379151544468373 2.292045986493209 0.6117959524632721  5.400311186792324 2.133813827666956 0.6696428597822749  5.525436962987882 2.281660192244893 0.6137726776848073  5.306936773862561 1.478147184569765 1.342841744257135  5.431646300963628 1.539833854688553 1.310323694592891  5.400766854091552 1.40466668143374 1.407392983621027  5.404577285737751 1.363377709249192 1.360540218522222  5.435343759281626 1.50589843016073 1.259326954007451  5.309762481715098 1.441763228210676 1.29259593157693  5.439047439923111 1.471998454666813 1.208264453448424  5.312569692568461 1.405413320850734 1.242307684035264  5.408339641300547 1.322074892714629 1.313660384580059  5.442755857182456 1.438106238532473 1.15716862799821  5.315368495685066 1.369070552676681 1.191996008419319  5.412092523509864 1.280770377697097 1.266761905432902  5.446460644612246 1.404202857272767 1.106062523066131  5.318166072780261 1.332717195934646 1.141676642876013  5.415841912696975 1.239455189291636 1.219856284407288  5.419598172461962 1.198126030321218 1.172948800066714  5.45015173616558 1.370266575010157 1.054946109700851  5.320963960355313 1.296340362589517 1.091359420388516  5.423404409227358 1.156779988912746 1.12603296664226  5.453838472825557 1.336274895297523 1.003821693869088  5.323765913469516 1.259934416402939 1.041043517707271  5.33204490065163 1.614748419589395 1.257228293324342  5.333642099550859 1.584964682393244 1.203991965554464  5.335190505315893 1.555242016790885 1.150699222439327  5.336728666230154 1.525543900374834 1.097393922246076  5.338269028384456 1.495841299716868 1.044090441684546  5.339825105662951 1.466109908257085 0.9907956399605546  5.341433564098487 1.436316771319978 0.9374989314777495  5.65298609373969 3.02989748350969 0.8824570571358131  5.742104942025443 3.180136101466756 0.9168121806878026  5.803866293719117 3.053229049808087 0.8922689253654835  5.805087456103397 3.062688314693629 0.8221953142206841  5.744496601155662 3.19662617771979 0.8465839461511959  5.656344368247601 3.037189002481164 0.8122612417186101  5.806234693471596 3.072018491501287 0.7522648211355472  5.746766876192456 3.212949262833715 0.7764591718935925  5.659630313394721 3.044370867816387 0.7422149593573378  5.807327203267345 3.081218652404123 0.6824560631588702  5.74895589412473 3.229116453799343 0.7064464796364989  5.662860690073958 3.051445927926446 0.672324447274966  5.808414440427769 3.090328852431593 0.6127692607257033  5.751147518864197 3.245179878519135 0.6365487380327816  5.666068277428388 3.058424263396382 0.6025717415725311  5.80955915092081 3.099403433738828 0.5432084803963219  5.753408275392673 3.261196709661935 0.5667721631237463  5.669319669996429 3.065364280811107 0.532958809394744  5.81078634109557 3.108526957932978 0.4737613291379466  5.755805798613328 3.277234542501482 0.4971301552722933  5.672641881806635 3.072345217483221 0.4634739957592563  5.578501448909284 1.728299400042676 1.214746759453062  5.597376131098953 1.865165419991613 1.150717872153484  5.715482288840001 1.808672219723738 1.186793918789053  5.72115317674027 1.782864678069984 1.133586320672846  5.600103805792603 1.841514489553034 1.096350232387745  5.58289992551788 1.701389878246826 1.161444129561497  5.60286776988926 1.817963762113207 1.041939471370682  5.587362997065465 1.674556352895244 1.108086590115903  5.726960588019788 1.757130015107042 1.080351568204795  5.605658582640483 1.794457857334943 0.9875329293090331  5.591859012409835 1.64775478298721 1.054716226152935  5.732830620289239 1.731435778736612 1.027129080376793  5.608452728405335 1.770952963057502 0.9331540035358822  5.596353758702639 1.62094985067334 1.001355171958211  5.738698081081012 1.705745771176436 0.9739354372221452  5.611225306401502 1.747402107195155 0.8788126690771674  5.600814098538505 1.594104436684286 0.9480071216415143  5.744498762362547 1.680019088604944 0.9207708986368014  5.605212527770016 1.567171194546637 0.8946709443601256  5.613965230776102 1.723735995182972 0.8245025656531825  5.750166290714558 1.65419791524968 0.8676188329369396  6.283996371635302 1.658002326306654 1.303133492298425  6.264228532120765 1.528730074669542 1.388497557362762  6.38416800755081 1.600744863658552 1.356028033474773  6.255082385731794 1.566473477337143 1.435630949835534  6.293197301815034 1.625421749358413 1.253431246722047  6.27364656475822 1.491143008196747 1.341452511140558  6.202444586108647 1.880809337497881 1.226806641053484  6.320169251675521 1.82237575064023 1.278557694399314  6.155100550485706 1.761315031744247 1.28560948484669  6.16455685110474 1.730723863433165 1.235173268503033  6.328343923542668 1.79196847506291 1.227537339480045  6.211303451342599 1.852361964561493 1.175348946617921  6.336689670173165 1.761587406334808 1.176697570520928  6.220369730093407 1.823916047021485 1.124043437761397  6.174258917768494 1.700226843818004 1.184932446073503  6.229561158026081 1.795544114390944 1.07286776909498  6.345136121506139 1.731307385250476 1.126043312971966  6.184105376614276 1.669811732368032 1.134789603908318  6.238775228105244 1.767239726644545 1.021806718185316  6.353616563716107 1.701102539070005 1.075515376586734  6.193966487289273 1.639463169457827 1.084753662485216  6.24788326942454 1.738984873881676 0.9708556690154542  6.362021348657262 1.670975207165629 1.025143868334318  6.203691911658977 1.609156108004659 1.034829802672502  6.256690422743075 1.710775936506654 0.9200054559464246  6.213077794410689 1.578873326829883 0.9850190553148758  5.952913626469313 3.045880476146032 0.8893861616529026  5.869842102046612 2.928349711594145 0.8848108078793431  5.868981658012503 2.931355994203617 0.8157407009690524  5.950769112126045 3.056114109250808 0.8194943421901695  5.868081071373071 2.934268006926814 0.746817468679042  5.948576226474573 3.066203154546441 0.7496993135123979  5.86714840443602 2.93708446892662 0.678043779937234  5.946338592759814 3.076160237650485 0.6800225235245715  5.866211668573963 2.939810500790605 0.6093979103052979  5.944108403314509 3.086038076078817 0.6104575746688466  5.865301113413901 2.942528297019821 0.5408596394970654  5.941939626100595 3.095890629026276 0.5410036231050241  5.86446157854334 2.945302122613133 0.4724238315095269  5.93985377175587 3.105814021566078 0.4716445146789152  5.83218550784072 1.775961878215842 1.219255897708189  5.830857510463925 1.89142555998139 1.160603869151395  5.960948735885658 1.853244441756633 1.197946508831842  5.96950362783626 1.825943398595952 1.146010901478331  5.837596561343365 1.866097273269382 1.107542296738516  5.840196886768614 1.74877550507157 1.167068322013077  5.978303379156613 1.798696673433359 1.094135127381028  5.84451741632305 1.840839924309293 1.054490466346554  5.848428113193755 1.721650306350594 1.114894703539116  5.987221486660988 1.771509059703226 1.042323147325408  5.851524129704394 1.815631605249543 1.001473082912043  5.856756822554791 1.69456710928857 1.062750405891398  5.996139282176776 1.744353822430299 0.9905780455664622  5.858531408356185 1.790438759848267 0.94850219926515  5.865082381724606 1.667497455542071 1.010645007388195  6.004934599460292 1.71719691429049 0.938895468184637  5.86545332919221 1.76522120094908 0.8955797995540602  5.8733050123739 1.640404420857702 0.9585727697493417  6.013465137017754 1.68999218201608 0.8872546991113679  5.872188382075273 1.739920284040039 0.8427011819323385  5.881304869667435 1.613240948864387 0.9065151642613416  5.721021013996504 1.692291174659087 1.245767927391206  5.72791990302406 1.663209529143036 1.193727473524964  5.734969650647464 1.63418648001084 1.141661513054676  5.742083185549266 1.605197352576786 1.089611163025068  5.74918429632189 1.576212911643752 1.037586867100693  5.756202083651353 1.547201176161137 0.9855842617362387  5.76307555851341 1.518115845127269 0.9335803143613863  5.972114158781491 1.973539760447017 1.139854142697322  5.979376906712258 1.948355004741978 1.086568100110399  5.98683630036791 1.923213286976721 1.033342014638052  5.994406874088983 1.898141366524057 0.9801826978186678  6.001980699377685 1.873102525009271 0.9270962546679888  6.009455237167869 1.848063004380665 0.8740799192033062  6.016706293978194 1.822975586656053 0.8211203764725938  5.593720444678707 1.585898063037879 1.294836023489782  5.524523814593809 1.460340358672249 1.371270532401025  5.530382910571491 1.421640295366017 1.323176679398269  5.599774507078417 1.553827645031835 1.243515135476858  5.536290982273544 1.38295005877799 1.275024809498453  5.605927894654831 1.521788414634021 1.19215146559304  5.542215834931715 1.344268296578307 1.226863072296927  5.612121158849724 1.48976598172851 1.140777367500583  5.548128381851685 1.305580488965429 1.178701928960522  5.618306084935512 1.457739075033899 1.089407519481936  5.554007787551553 1.266872462790728 1.130540048069048  5.624441440867335 1.42568
[...]
<PointData  Vectors="f_16"> 
<DataArray  type="Float64"  Name="f_16"  NumberOfComponents="3" format="ascii">1.0464683692616356e-02 -4.3697747635718348e-02 -2.9407979974313322e-02  1.1244326920937818e-02 -4.0744348883772229e-02 -2.4244268239397473e-02  9.2957046255412179e-03 -4.0556109017792843e-02 -2.2349719730405785e-02  1.0269980265989681e-02 -3.8015876695194004e-02 -2.3075214359072983e-02  1.2351596920590667e-02 -3.8128002375008428e-02 -2.4991642305504411e-02  1.1513680907462239e-02 -4.1829495433477221e-02 -3.0066676163925582e-02  1.0958399338883462e-02 -3.5616380361617878e-02 -2.3674350821446401e-02  1.3172785286688731e-02 -3.5697242221702404e-02 -2.5624358700430203e-02  1.2568424869721699e-02 -3.9878967835680200e-02 -3.0558197805029070e-02  1.1487460893684385e-02 -3.3304322856470545e-02 -2.4262414947886637e-02  1.3815252535635075e-02 -3.3330646719548843e-02 -2.6241253856714903e-02  1.3317888669867951e-02 -3.7822040785625281e-02 -3.1013786594881233e-02  1.4487777019804103e-02 -3.0888000722947617e-02 -2.6851974124897086e-02  1.3897763472885275e-02 -3.5674421049517763e-02 -3.1450174627537270e-02  1.2071023407812497e-02 -3.0951538163439176e-02 -2.4850549795957584e-02  1.5234415060777259e-02 -2.8287004037348164e-02 -2.7454423398852526e-02  1.4453095168389029e-02 -3.3431942678329926e-02 -3.1880292090278504e-02  1.2733946425682293e-02 -2.8458725805228319e-02 -2.5425455047605339e-02  1.6042286171766739e-02 -2.5498749892946544e-02 -2.8044718762946046e-02  1.5041882976785912e-02 -3.1040581113338187e-02 -3.2303578204644384e-02  1.3440837068674279e-02 -2.5788804218799831e-02 -2.5990630359472664e-02  8.4525479236631298e-03 -5.0244508874508938e-02 -2.6021177995197424e-02  7.4874385408649552e-03 -5.0513505428178493e-02 -2.6310004543085099e-02  7.1702059253540406e-03 -5.0870237627885395e-02 -2.0391052332730201e-02  7.3866147617575144e-03 -5.1000157667784665e-02 -1.8679467639418388e-02  7.7624450983626754e-03 -5.0934666656524977e-02 -2.5131397365544771e-02  8.7766802702707244e-03 -5.0644743391532084e-02 -2.4596269584751137e-02  8.2853111376018779e-03 -5.1309326000294114e-02 -2.4009313426047126e-02  9.3773722634942387e-03 -5.1074551173148429e-02 -2.3266175405044089e-02  7.8477550655402014e-03 -5.1183726165339422e-02 -1.7180076782040612e-02  8.9430628769996863e-03 -5.1681387581283128e-02 -2.2906990080450187e-02  1.0120125554118878e-02 -5.1544175309291826e-02 -2.1990690353656160e-02  8.4474670694117456e-03 -5.1483752999235535e-02 -1.5798371696228376e-02  9.5638249309648819e-03 -5.2039036324756621e-02 -2.1801598237768435e-02  1.0812572557053483e-02 -5.2029554087595999e-02 -2.0756754841562208e-02  9.0160409262184573e-03 -5.1900412038072552e-02 -1.4515771242904301e-02  9.5544331557349330e-03 -5.2507072856118081e-02 -1.3211296229958182e-02  1.0115005081306838e-02 -5.2440175523995117e-02 -2.0622168881110646e-02  1.1453386913052026e-02 -5.2630201436611096e-02 -1.9464304450897620e-02  1.0072856134244405e-02 -5.3384130402467256e-02 -1.1839296815148595e-02  1.0456224677491794e-02 -5.2869346716526343e-02 -1.9328885237559733e-02  1.1975306470021619e-02 -5.3384153971343364e-02 -1.8045708476875193e-02  8.9322971501882564e-03 -4.9919531368952774e-02 -3.1057068950636663e-02  9.4176243184749403e-03 -5.0366215365895750e-02 -3.0244744429319553e-02  1.0097836882862758e-02 -5.0733827387762755e-02 -2.9393590369420745e-02  1.0843273868308951e-02 -5.0996174718495768e-02 -2.8529645217612188e-02  1.1573260471682915e-02 -5.1170826639827083e-02 -2.7626190275651014e-02  1.2199441933926764e-02 -5.1238506727431680e-02 -2.6654537654583560e-02  1.2724874519353904e-02 -5.1060251842198368e-02 -2.5591186300261536e-02  6.3252541764965489e-03 -2.6898483009857647e-02 1.5501389329568686e-02  4.6681080523366834e-03 -2.4276514007058301e-02 2.5867866238720717e-02  4.2446361945465173e-03 -2.6086559208080611e-02 1.7880064557494541e-02  4.4254614752511781e-03 -2.4465381088589394e-02 1.8503256605955962e-02  4.6051911087709738e-03 -2.4098577165765814e-02 2.6823275945100349e-02  6.6092093227407504e-03 -2.4753399615459960e-02 1.6046391756442714e-02  5.0480025188810148e-03 -2.1256388834835931e-02 1.9052083614246713e-02  5.0351221050076072e-03 -2.1274691304496357e-02 2.7783665835591016e-02  7.2935529406880275e-03 -2.1448104194460658e-02 1.6493039227362789e-02  5.5066494967269891e-03 -1.8027407789986769e-02 1.9499206673531735e-02  5.4447749930535321e-03 -1.8234359713741419e-02 2.8544238646904901e-02  7.8452758366897787e-03 -1.8103334443014610e-02 1.6851179574113313e-02  5.9461012245980126e-03 -1.4674579197535216e-02 1.9785538918535774e-02  5.8580354356014474e-03 -1.5170302706281261e-02 2.9027162800017953e-02  8.4113203554505595e-03 -1.4612137072540311e-02 1.7044031066234304e-02  6.3511640842183938e-03 -1.1087207737954264e-02 1.9908603211418623e-02  6.2654404527420632e-03 -1.1854932728150100e-02 2.9257283389272363e-02  8.9771472525223116e-03 -1.0881350676387699e-02 1.7088990294285015e-02  6.7120515752615573e-03 -7.1448450381234397e-03 1.9890310317018507e-02  6.6371219517671705e-03 -8.1144029818147230e-03 2.9274453085544029e-02  9.5406774416666763e-03 -6.8156256795798651e-03 1.7019406252808521e-02  6.7820693293611789e-03 -5.0156385871357706e-02 -2.9368205572004372e-02  7.0982905261633370e-03 -4.9049586107823492e-02 -3.0831571765452002e-02  5.4010816592386240e-03 -5.0027043196852895e-02 -2.8403696178754004e-02  5.8732360065339292e-03 -4.9924879001198103e-02 -2.8223578945881404e-02  7.7325303269254282e-03 -4.8781339115686967e-02 -3.0826035156207205e-02  7.2283679913964531e-03 -5.0306335518695691e-02 -2.8940757937645934e-02  8.3752729046960225e-03 -4.8347508164957344e-02 -3.0730169859559862e-02  7.7670550278012892e-03 -5.0317924085351302e-02 -2.8445578375657726e-02  6.3806165647957332e-03 -4.9666288576842743e-02 -2.7940420615979379e-02  8.9651892800389297e-03 -4.7709994223374144e-02 -3.0551698572881796e-02  8.3440866730168390e-03 -5.0189046486274799e-02 -2.7889370388421569e-02  6.8725040274129224e-03 -4.9245408296744834e-02 -2.7575902911626555e-02  9.4595313510083059e-03 -4.6873723223066190e-02 -3.0292894142321496e-02  8.8820352057369864e-03 -4.9904959249791728e-02 -2.7267512673463550e-02  7.2964650169537511e-03 -4.8638221397603938e-02 -2.7137736300484404e-02  9.9645153609230555e-03 -4.5688451018703044e-02 -2.9983378082243928e-02  9.3057826234370835e-03 -4.9458899400450285e-02 -2.6569125971468356e-02  7.6210663181210383e-03 -4.7833516662250622e-02 -2.6617450935262962e-02  9.7676895724728985e-03 -4.8646688923073340e-02 -2.5810288557844455e-02  1.0507479816051397e-02 -4.4098800170144344e-02 -2.9639266408455191e-02  8.0333908502016344e-03 -4.6623234222216633e-02 -2.6050444343193729e-02  -2.0091075614132197e-03 -5.3112886186334703e-02 -1.7708778639887575e-02  -1.7484973603927112e-03 -5.4195173700800549e-02 -1.3260901724270595e-02  -3.2172933992074835e-03 -5.3779238328859391e-02 -1.4656119475106890e-02  -1.8354934654207676e-03 -5.4159050771284092e-02 -1.4454844346667151e-02  -1.7185601169963163e-03 -5.3081400223229845e-02 -1.6971742126866654e-02  -1.5252647100206186e-03 -5.4133018980077711e-02 -1.2172801037219110e-02  -1.3928652890077050e-03 -5.0883411157588446e-02 -2.2450689396519907e-02  -2.9405491267420285e-03 -5.1743722827824114e-02 -2.0567067284894436e-02  -6.6446066180728602e-04 -5.2119453766277073e-02 -2.1480695625349863e-02  -3.9959630571278115e-04 -5.2089467288302924e-02 -2.1058948178142991e-02  -2.5933215182659653e-03 -5.1584832989988921e-02 -2.0310498286752493e-02  -9.7600491694834846e-04 -5.0548101409442943e-02 -2.2404276828199236e-02  -2.2347517000989364e-03 -5.1312074898911451e-02 -1.9952184414946082e-02  -5.8086812638379472e-04 -5.0109396893906422e-02 -2.2236983484682244e-02  -7.2574410392424051e-05 -5.1959284299242063e-02 -2.0544444441800470e-02  -2.2728975627407441e-04 -4.9547152925728304e-02 -2.1970729835673480e-02  -1.9033219884924653e-03 -5.0921665947926929e-02 -1.9509921747962372e-02  2.5270711205421299e-04 -5.1720542631776813e-02 -1.9962506277090484e-02  5.3905352351015084e-05 -4.8839009467830478e-02 -2.1614699890019316e-02  -1.5861357867130949e-03 -5.0441401476858355e-02 -1.8989510245338577e-02  5.6353379457253230e-04 -5.1401572137429782e-02 -1.9295344847705172e-02  2.2400381320261201e-04 -4.7956805795260835e-02 -2.1164894986004976e-02  -1.3424328575021491e-03 -4.9829094512396803e-02 -1.8378050550933816e-02  7.7724674151655767e-04 -5.0978124849638873e-02 -1.8537821874863289e-02  4.1275250913828238e-04 -4.6759406737325433e-02 -2.0642498786625278e-02  9.0753429699699372e-04 -5.0380682154281320e-02 -1.7688297651864856e-02  2.2527200362009378e-03 -2.5811817693113290e-02 1.7995703475855801e-02  3.6368076636023637e-03 -2.7751428687242199e-02 1.0227854287608782e-02  4.1607707061647441e-03 -2.5341171804714055e-02 1.0461255019643739e-02  2.6592375733934057e-03 -2.3986357811812301e-02 1.8650887452248022e-02  4.7713012158433592e-03 -2.2310040049128118e-02 1.0649788565279629e-02  3.1467728522719131e-03 -2.0910771897048396e-02 1.9179591225895184e-02  5.2940658814751530e-03 -1.9119505831798774e-02 1.0781244536139422e-02  3.5445865837081311e-03 -1.7758632603435555e-02 1.9659360005140947e-02  5.7485908708062982e-03 -1.5758219861090692e-02 1.0818619951038149e-02  3.8835069649660169e-03 -1.4469790710829256e-02 1.9976246089236802e-02  6.1768994626851554e-03 -1.2203963648170033e-02 1.0761492841869518e-02  4.1740254182746923e-03 -1.0963382133222508e-02 2.0137399455861911e-02  6.5390250814989616e-03 -8.3878122655280801e-03 1.0621484999265478e-02  4.3709622300684139e-03 -7.1354495712475730e-03 2.0190439868289202e-02  3.7486611765484420e-03 -5.0801070981993983e-02 -2.6137795679675033e-02  4.0405883394030373e-03 -4.9578874990211234e-02 -2.7319507355825907e-02  2.1054249831051930e-03 -5.0513156692423768e-02 -2.5257581049474936e-02  2.5340532420313274e-03 -5.0257011951277825e-02 -2.5170859637112804e-02  4.5644245359059933e-03 -4.9192377293098916e-02 -2.7354719041982924e-02  4.1144468997123531e-03 -5.0777142557301237e-02 -2.5835031807499551e-02  2.9554509478245034e-03 -4.9865704534296340e-02 -2.4964810290952686e-02  5.0560127112874338e-03 -4.8659140479098618e-02 -2.7270462514361785e-02  4.5243999714982943e-03 -5.0605910549372787e-02 -2.5442042705754921e-02  3.3307927346998716e-03 -4.9326286704314916e-02 -2.4661219047207424e-02  5.4742698341296104e-03 -4.7941711924129313e-02 -2.7090583100719455e-02  4.9443647509238272e-03 -5.0303581828203596e-02 -2.4968325756808137e-02  3.6157882482068934e-03 -4.8614421595476250e-02 -2.4270138996145413e-02  5.7987253298026533e-03 -4.7025614702688949e-02 -2.6827372119940952e-02  5.2988723089861254e-03 -4.9847095314066947e-02 -2.4418198098597223e-02  3.7907710364171198e-03 -4.7721734663634018e-02 -2.3787124325911367e-02  6.0575588762870969e-03 -4.5871884069012665e-02 -2.6490907912890820e-02  5.5257550455346787e-03 -4.9254953913494562e-02 -2.3781212058332550e-02  4.0276151555684973e-03 -4.6494576377878828e-02 -2.3242413970486014e-02  6.4037359248908868e-03 -4.4346634542297571e-02 -2.6109298449071443e-02  5.8083921813334030e-03 -4.8318995036595445e-02 -2.3073437164229552e-02  4.9448711864492545e-03 -5.0983522394226294e-02 -2.6179773600172627e-02  5.2478490774071655e-03 -5.1163023157586508e-02 -2.5600975240953387e-02  5.6699056471886103e-03 -5.1218746917754313e-02 -2.4963857814535959e-02  6.1292746257300568e-03 -5.1166193679338653e-02 -2.4268664655665451e-02  6.5574079700764345e-03 -5.1011278751898405e-02 -2.3510515800610053e-02  6.8878431575856583e-03 -5.0742997692192385e-02 -2.2674476338003249e-02  7.1508098350104559e-03 -5.0272585400071512e-02 -2.1754212970176667e-02  2.0663158065968757e-03 -4.8910931159929012e-02 -2.5416934817882385e-02  2.6388321273422832e-03 -4.8229589291294332e-02 -2.5638982546254973e-02  3.1253337833465566e-03 -4.7408574811169828e-02 -2.5734968305469268e-02  3.4901401084961835e-03 -4.6398366939359573e-02 -2.5729799624872245e-02  3.7366685673587887e-03 -4.5182511693657092e-02 -2.5638841011209494e-02  3.9361416382660526e-03 -4.3717386488086075e-02 -2.5474557067835853e-02  4.2211916494535864e-03 -4.1953131309960312e-02 -2.5272285675974893e-02  5.9810710375355061e-03 -5.1016501099080624e-02 -2.5147276106875505e-02  6.1372549578377058e-03 -5.1249935217060040e-02 -2.1038609319684164e-02  6.3067777657014020e-03 -5.1485539821482414e-02 -1.9523955405027448e-02  6.1903334952703075e-03 -5.1366910360854896e-02 -2.4162700668225148e-02  6.7085167575642712e-03 -5.1721135915022906e-02 -1.8153196165879775e-02  6.6160750942856105e-03 -5.1631459947459865e-02 -2.3188786909472764e-02  7.2437668939081762e-03 -5.2017600830139968e-02 -1.6854810231798786e-02  7.1389847872302100e-03 -5.1853892711911903e-02 -2.2212131335675449e-02  7.7608588175812803e-03 -5.2395368470481568e-02 -1.5603314799690243e-02  7.6511296782402136e-03 -5.2046250088126030e-02 -2.1204673005801533e-02  8.2267562851156412e-03 -5.2923765815087030e-02 -1.4324218550708713e-02  8.0745272092225505e-03 -5.2235156727214578e-02 -2.0127381447913460e-02  8.6096912565185504e-03 -5.3656446775621792e-02 -1.2971223033845817e-02  8.2823419348564201e-03 -5.2427761646107088e-02 -1.8927564448331363e-02  1.0019292238694391e-02 -3.8194706236681024e-02 -1.8125948806368822e-02  1.0970704362919997e-02 -3.5210638020971359e-02 -1.8835154731012115e-02  1.1537977361025728e-02 -3.2624751165191007e-02 -1.9512133022402730e-02  1.2170918097627281e-02 -3.0142316961682375e-02 -2.0191745648980661e-02  1.2929574360140425e-02 -2.7520694328527082e-02 -2.0864904300638400e-02  1.3751815152660057e-02 -2.4706264487241131e-02 -2.1522225475170600e-02  1.4593961438416054e-02 -2.1696245175123200e-02 -2.2180632594168082e-02  1.0933927293408323e-02 -5.0834122412715538e-02 -2.9035376084338392e-02  1.1755888074332614e-02 -5.1292871559704939e-02 -2.7980555993958732e-02  1.2539094152774726e-02 -5.1682374822009131e-02 -2.6927925096472509e-02  1.3288733347170383e-02 -5.2080741554006736e-02 -2.5788602046410411e-02  1.3803095716666989e-02 -5.2402941249197615e-02 -2.4511014344755225e-02  6.5413931493600256e-03 -2.4986080206343127e-02 2.4552430140916050e-02  6.3214754004582048e-03 -2.4402486012981024e-02 2.5574674360673524e-02  5.7744870980591199e-03 -4.6551605784463233e-02 -2.7808237508730165e-02  3.8272763574374096e-03 -4.7812328934836029e-02 -2.6632574654110383e-02  5.7743095013806107e-03 -4.8620475729906083e-02 -2.9124997215103265e-02  6.4082140548831733e-03 -4.8076518649274563e-02 -2.9273079595970794e-02  4.4855512148293582e-03 -4.6938231966677936e-02 -2.6963683073551938e-02  6.5273549560448058e-03 -4.5466030652982437e-02 -2.8224910580743414e-02  6.9872119308912158e-03 -4.7359123286360778e-02 -2.9308073195864839e-02  5.0165028258350270e-03 -4.5901146577120647e-02 -2.7169825430380001e-02  7.1437526401474235e-03 -4.4189121668921451e-02 -2.8530243604165128e-02  7.4798475239159761e-03 -4.6436971340750921e-02 -2.9253090432733216e-02  5.4150471752400300e-03 -4.4671302971590325e-02 -2.7281240519401697e-02  7.6121317817191914e-03 -4.2715800812732234e-02 -2.8739485744376944e-02  7.8745326593475141e-03 -4.5294492381307332e-02 -2.9121077092356444e-02  5.7029596569672728e-03 -4.3222576193200725e-02 -2.7304577083477416e-02  8.0384290974128362e-03 -4.0972654505681223e-02 -2.8883734694331913e-02  8.2726239686151132e-03 -4.3826729919568812e-02 -2.8936027716930289e-02  6.0214964081129743e-03 -4.1486632520989608e-02 -2.7269699193934099e-02  8.4357881976323233e-03 -3.9061057880783685e-02 -2.8996492376662068e-02  8.6934630283111644e-03 -4.2065202514719402e-02 -2.8725544089536269e-02  6.3506607601145990e-03 -3.9622137336528203e-02 -2.7215529975633757e-02  8.8164629128338647e-03 -3.7067268995885409e-02 -2.9099075527921743e-02  -3.1350131879757123e-04 -4.2942326044518919e-02 -1.8559814224819178e-02  -2.2661084439468552e-03 -4.1403567687342942e-02 -1.5407566676577297e-02  -2.5210849356262057e-03 -4.4467006249724654e-02 -1.8594215886889164e-02  -1.8908429533419924e-03 -4.2854595286754303e-02 -1.9262168015535087e-02  -1.6753443904800323e-03 -3.9300726386592259e-02 -1.6201354816611609e-02  3.7705183061027283e-04 -4.1058080553292867e-02 -1.9267724589759949e-02  -1.2261950370951627e-03 -3.7168282021010378e-02 -1.6885221335362032e-02  8.7592044322502372e-04 -3.9098775348399131e-02 -1.9849718866171061e-02  -1.4202442256699046e-03 -4.1191756828920088e-02 -1.9803727976471962e-02  1.2191089771056609e-03 -3.7030135432155241e-02 -2.0354105941133623e-02  -8.5534634537356579e-04 -3.5075274418897559e-02 -1.7498335430523943e-02  -1.1346449207952631e-03 -3.9408304538800967e-02 -2.0266897932050325e-02  1.5099785399120310e-03 -3.5001768787358563e-02 -2.0816060606371062e-02  -5.3405806181015206e-04 -3.3058062142473574e-02 -1.8080763466393722e-02  -8.6173800966119277e-04 -3.7492060013013973e-02 -2.0657823456053503e-02  1.8059197756987930e-03 -3.2993566840618826e-02 -2.1265847083911604e-02  -2.3634230350310604e-04 -3.1047066847982668e-02 -1.8656325492963199e-02  -5.9639653862060646e-04 -3.5582797131803519e-02 -2.1019139677406873e-02  2.1485396003191140e-03 -3.0906731982889173e-02 -2.1697058936018993e-02  1.2986459881653991e-04 -2.8884716162660033e-02 -1.9239078391350539e-02  -3.2112812910735545e-04 -3.3671409532961528e-02 -2.1356809064120866e-02  1.0785290649651218e-02 -4.8300830747007674e-02 -3.7333945085372952e-02  1.1106957932953892e-02 -4.6907833138526707e-02 -3.6498381595588679e-02  9.8729489140789561e-03 -4.7630825554043021e-02 -3.4871929497629517e-02  1.0824086761742248e-02 -4.7056993517754608e-02 -3.5077819828202558e-02  1.2249620950506867e-02 -4.6085990318195852e-02 -3.6820188963490874e-02  1.1756921350615889e-02 -4.8060885727798680e-02 -3.7364966643517905e-02  1.3314447119977726e-02 -4.5073347594408050e-02 -3.7048902513680357e-02  1.2724929507754779e-02 -4.7630667978235897e-02 -3.7319727227289330e-02  1.1723878077473297e-02 -4.6284827383683114e-02 -3.5191884383027672e-02  1.4276958585705032e-02 -4.3828267771147601e-02 -3.7199992139750886e-02  1.3638749591985983e-02 -4.6991917091404045e-02 -3.7203722202121932e-02  1.2528418079596447e-02 -4.5309487972769381e-02 -3.5233803845668196e-02  1.5152314229569664e-02 -4.2258460909554124e-02 -3.7302898778147561e-02  1.4497850603078061e-02 -4.6056531672027133e-02 -3.7026265485672526e-02  1.3298520218735409e-02 -4.4007584908516313e-02 -3.5222827989257674e-02  1.5857301636469624e-02 -4.0401728743455080e-02 -3.7384803850807002e-02  1.5316706460663645e-02 -4.4700730079698922e-02 -3.6824339202404556e-02  1.3985514486081438e-02 -4.2366352715258251e-02 -3.5178429383556933e-02  1.6360679705266442e-02 -3.8317844050434181e-02 -3.7457702701271280e-02  1.5970873098011353e-02 -4.2959827665195599e-02 -3.6604539104402201e-02  1.4517234170175823e-02 -4.0458049461663280e-02 -3.5118885234319740e-02  1.4431356854256394e-02 -3.8945452714299465e-02 -3.1604095166574198e-02  1.5243601406072973e-02 -3.6771388784275855e-02 -3.2115003997846100e-02  1.5911263692921680e-02 -3.4500729663978644e-02 -3.2614451089530462e-02  1.6566739171343155e-02 -3.2088471448080774e-02 -3.3104948932150713e-02  1.7263900316079033e-02 -2.9511827563876065e-02 -3.3585840546501156e-02  -5.7143635626026395e-04 -5.3171769294978043e-02 -1.8462069679726457e-02  -2.1846824201066112e-03 -5.3023837343168893e-02 -1.8395110355053215e-02  -4.7023105777299634e-04 -5.3295604152756380e-02 -1.7594884071031387e-02  -2.3104370273164604e-04 -5.3324333737575599e-02 -1.6711495663104394e-02  6.9829465063138565e-05 -5.3287392264027768e-02 -1.5818584752005007e-02  -1.4129074775313336e-03 -5.2949794875179583e-02 -1.6219685468355470e-02  -1.3019680601130752e-03 -5.4054502108336726e-02 -1.1205289356918601e-02  3.4425619516349716e-04 -5.3233053078637342e-02 -1.4923860428983278e-02  -1.1414171360343219e-03 -5.2765495279298434e-02 -1.5447847164027244e-02  -1.0867493835897363e-03 -5.4030735513279075e-02 -1.0263226925035628e-02  5.7727442888033925e-04 -5.3236589378387281e-02 -1.3949177210427882e-02  -8.6377939942343591e-04 -5.2622979694378805e-02 -1.4571386314303348e-02  -8.7437109128361899e-04 -5.4152204861561158e-02 -9.2595561755601727e-03  6.5009419153878097e-04 -5.3277701569050609e-02 -1.2836758022488265e-02  1.335917227788