<?xml version="1.0"?>
<VTKFile type="UnstructuredGrid"  version="0.1"  >
<UnstructuredGrid>
<Piece  NumberOfPoints="985" NumberOfCells="4176">
<Points>
<DataArray  type="Float64"  NumberOfComponents="3"  format="ascii">8.123963870888062 3.031974882518874 0.8525083330028909  8.062703390031361 2.955567925177228 0.8521412388386504  8.032128368178475 3.092276104198452 0.8458160966112692  8.037936290068743 3.093385738973185 0.7766207560153507  8.073565353376337 2.944767355376157 0.7857748748764195  8.133079056443346 3.026177435772532 0.7841489845661386  8.084464375073898 2.93391195261643 0.7194425315704228  8.142239769194484 3.020306137171641 0.7158048174275504  8.043729862777251 3.094459485787887 0.7074106971852143  8.151438911859241 3.014370591868898 0.6474893197501572  8.095401095383085 2.923007395622081 0.6531549802706634  8.049548975826514 3.095473060358844 0.6381904452000667  8.160669442654651 3.008385973708942 0.5792022167337173  8.10635993687753 2.912055245952138 0.5869036493941394  8.055398117026648 3.096429650902681 0.5689699871181255  8.169922566881707 3.002367963514136 0.5109367073323179  8.117330192871481 2.901063805497584 0.5206816208900307  8.061277839457814 3.097331523933728 0.4997522991739667  8.179194589204972 2.99632815773972 0.4426932636569148  8.128298304375338 2.890050980044395 0.4544774168028328  8.0671952496579 3.098179490855676 0.430535374745681  8.892112911961314 3.413147062187461 0.8784869437777838  8.795603031922198 3.304520121808256 0.8751292726293461  8.781972346306633 3.474217356819844 0.9048787849713804  8.775085013613895 3.489883018951054 0.8310499827243478  8.786052251999765 3.305880802759257 0.8014439402600004  8.883053660742265 3.427541230832335 0.8045777996585735  8.76814180745747 3.505608063357051 0.7571349844141272  8.776461413720336 3.307208473822248 0.7276767956774568  8.873924264858873 3.441983819536168 0.7305696705173041  8.761185393055023 3.521321036985004 0.6831489123341739  8.766866277219565 3.308466093788831 0.6538605651707685  8.864780487069117 3.456391912367287 0.6564738452050449  8.75424877615745 3.536976940321967 0.6090985790397927  8.757290530967685 3.309656326218314 0.5800137037195975  8.85565524477567 3.470732352043029 0.5823086028645597  8.747353729641274 3.552545488784046 0.5349825923227662  8.747754464109086 3.310781578404282 0.5061392280164253  8.846567050057155 3.484980938487497 0.5080780663312883  8.740474433796612 3.567986477056323 0.4607958403906466  8.738273892225832 3.3118247077079 0.4322225138742335  8.837501500802297 3.499114543745765 0.4337973580064732  8.277449772338057 3.447060798235477 0.9049939228936621  8.220254459799055 3.358789680648172 0.8899929707808734  8.167128769607853 3.481188653005215 0.925955806180787  8.162342799559186 3.511823100261368 0.8592708430980502  8.218898701594661 3.376824633465779 0.8194411109663139  8.275300411786601 3.471882670452947 0.8350326026556653  8.157545079327889 3.542472741879122 0.7925317681955457  8.217541472197 3.394848986769978 0.7488328213080975  8.273128745175145 3.496712202399843 0.7650136876252358  8.152751432848936 3.573093693539084 0.7257232603944779  8.216201294679317 3.41282321928071 0.6781695958236311  8.270968201809849 3.521502210072502 0.6949269154992458  8.147964802312044 3.603673476893563 0.6588397016769867  8.214886197214435 3.430737661833623 0.607459396451157  8.268824029810451 3.546237097457974 0.6247710373634306  8.143180615026475 3.634204759750125 0.591875526319812  8.21360053678152 3.448586139450126 0.5367091896179538  8.266692254362844 3.570913409809688 0.5545349274490922  8.138361336446382 3.664665211413308 0.5248368024388311  8.212334915796848 3.46635526286282 0.4659217240700014  8.264595555934998 3.595522196875867 0.4842184622110968  7.914583213520623 3.026891808092581 0.8315482885395671  7.92291789465583 3.025693483221596 0.7633375105642373  7.931239522704056 3.024479396107608 0.695118126586904  7.939578599507342 3.023227154275873 0.626892608583617  7.94794196290166 3.021922209900048 0.5586667077743549  7.956329683852723 3.020556476741135 0.4904441610319007  7.964751531344106 3.019124643098418 0.4222315249107816  9.140038679461398 3.587140248174871 0.4227158892209166  9.256372460247624 3.714752355572168 0.4608331243106355  9.123193814811097 3.796720357382269 0.4821923619888018  9.128491505056788 3.769551088386543 0.5546325720877358  8.091894663020534 3.404190209052431 0.8992500980843563  8.090390479107034 3.429599997277939 0.8312686574340469  8.088869580308577 3.454988468027453 0.763224148191457  8.08735312095774 3.48033794207398 0.6951244546713511  8.085846994934265 3.505637975285707 0.6269645155808111  8.084342711163599 3.530878825909896 0.5587324293810818  8.082853597728636 3.556053676686236 0.490402174171973  8.688842736335692 3.3817933049061 0.8926705857355368  8.686637093596859 3.391102015580147 0.8185865464468886  8.684375019573654 3.400412065831828 0.7444115039723543  8.682111600381543 3.409673686629503 0.6701836490789789  8.679871479227206 3.418871210051885 0.5959090257631656  8.677670652927311 3.427992275671195 0.5215831627826015  8.675544525815496 3.437039083876095 0.4471814990152221  8.710193101043014 4.090422024821722 1.292937414167217  8.851699482370449 4.106844196563225 1.26371754011219  8.784602704513889 4.150843498321073 1.391042412136392  8.863713397737618 4.042471805275261 1.302634377542037  8.771493836647528 4.217572563826119 1.361092085009697  8.69664046689187 4.154792053521359 1.256480117277977  8.839770892509003 4.171169007916782 1.224927231872021  8.65612558779036 4.347471305162714 1.147147122598396  8.804101812288026 4.36366875774703 1.108643810504473  8.732361280168684 4.417132087565784 1.271357068380946  8.816003224131565 4.299599006256977 1.147437643468715  8.719218027825645 4.483413407854802 1.241357975936073  8.642482539226501 4.411480306567133 1.11060100367805  8.792168465629654 4.427596792242667 1.069780233564092  8.786713071919468 3.979818080705737 1.236650371249858  8.72390637190086 4.025993198228575 1.329497282865088  8.774474422262843 4.041042261115925 1.192302267243713  8.762337403529735 4.102236530366576 1.148100260244682  8.750242082672559 4.163386451218793 1.103937550162154  8.827884197498031 4.235425881426727 1.186186468852436  8.683155376348319 4.219099077054966 1.220058798470216  8.738149600309036 4.224469993036029 1.059754964159451  8.6696699985309 4.283333203400014 1.183624049932796  8.726027758900386 4.285462552193581 1.015514329784024  8.713855593860739 4.346325381173418 0.9712051344655859  8.909170683370716 3.29943028069354 0.8553142090233061  8.903793745924816 3.297302508749781 0.7803667336674731  8.898355108002605 3.295110568988896 0.7053342817379795  8.892915522762301 3.292851295539009 0.6302712399992838  8.887501921267933 3.290534139410787 0.555180969262683  8.882135222105706 3.288164895870832 0.480056619814562  8.876826816950969 3.285745659546069 0.4048861299209668  8.835747913096137 4.423935841610719 1.23242074301525  8.822987966159559 4.490358895093486 1.201070034248767  8.759381886919138 2.904293554208575 0.9840416912954976  8.626830271431487 2.918088393777086 0.9667385153313008  8.704455757854367 2.979728135882777 0.946848870571699  8.709542994650763 2.954818561700113 0.883961623407181  8.633784496826729 2.890017406701415 0.9067898502238135  8.764122423356286 2.874060402292887 0.9256547402479447  8.71464837221758 2.929681309199712 0.8212208893703108  8.640786729268735 2.861741225058967 0.8470271015490106  8.768877903333449 2.843605018804088 0.8674673675796505  8.719747513843046 2.904427036565001 0.7585894963099664  8.647800186216646 2.833369918721152 0.7874034968424999  8.7736249955712 2.813055140660328 0.8094206370731039  8.724837695850695 2.879131876027213 0.6960348356574191  8.65480152991363 2.804984694117684 0.7278785756374202  8.574019856645045 3.436862076111303 0.9007443228414503  8.604934813623402 3.321878284659507 0.8864962150813526  8.485061825753126 3.30576532136139 0.8852709499190943  8.488727437525352 3.311359386458045 0.8121667397573062  8.606593875618664 3.326348780003422 0.8126534144859547  8.575165117104477 3.451526781960533 0.8268770272538647  8.492385576390882 3.316884604420676 0.7390089934576591  8.608229005535266 3.330752902643704 0.7387552940085713  8.576259530473004 3.466189337190683 0.7529503182015949  8.496068402143969 3.322338013236311 0.6658133200203091  8.609879613279308 3.335087426494136 0.6648203578188888  8.577359888022094 3.48080925184717 0.6789719586705859  8.499787705350252 3.327726061043014 0.5925935751221779  8.611563331340756 3.339355753667779 0.5908570101711603  8.578487952899577 3.495365642858038 0.6049420256707125  8.503552337556236 3.333055653618419 0.5193543137810154  8.613294010345182 3.343563366041725 0.5168640554936781  8.579664567062867 3.509849656372699 0.530857354528303  8.507372406094685 3.338333229496735 0.4460941730609926  8.615083571545759 3.347715698516266 0.4428336269340089  8.580949579918164 3.524252007556855 0.4567192153758087  8.686981721916991 3.938484914059213 1.210231635811987  8.673638972673492 3.998578323604856 1.165049882185285  8.660427090279711 4.058658509002393 1.119958336623207  8.647261246782957 4.1187095190213 1.074894518849855  8.634094668566618 4.178708664059471 1.029804766742607  8.620891099636165 4.238626547336271 0.9846609853853808  8.607602663741728 4.298426947627657 0.939443261436531  8.454999712220305 3.420067995989893 0.8898028170783477  8.454233074494784 3.437950219647133 0.8168695127900659  8.453450971799908 3.455819752463722 0.7438793372972559  8.452690404467363 3.473634587364971 0.6708444982176174  8.451961853797377 3.491381685209977 0.5977569931274349  8.451275347159223 3.50905374991899 0.5246032875093317  8.450649907725191 3.526645477432491 0.451375951984978  8.051782461690079 3.531072474244143 0.9662635228934087  8.04735367836607 3.568239898151546 0.9042008497377525  8.042895244087664 3.605405966203535 0.8420751704595427  8.038424046274196 3.64255738450228 0.779874921465403  8.033943148789577 3.679686346000965 0.7175967429476031  8.0294450570916
[...]
<PointData  Vectors="f_16"> 
<DataArray  type="Float64"  Name="f_16"  NumberOfComponents="3" format="ascii">-2.4969317648066511e-02 -2.3368647653200073e-02 1.9267282661901187e-03  -2.3978014637300222e-02 -2.4694452492340372e-02 -5.6298982024292703e-04  -2.3787775933876532e-02 -2.2082671886107793e-02 6.4681958882979347e-03  -2.5662047648993155e-02 -1.9829168520285892e-02 6.5109767910721938e-03  -2.5873766013685611e-02 -2.1929981683722562e-02 -1.0934941776873696e-03  -2.6851849007490564e-02 -2.0715234323986226e-02 1.6071056993955336e-03  -2.7001434986026876e-02 -1.9607912414935307e-02 -1.7663780841793840e-03  -2.8015851380336337e-02 -1.8244342662280862e-02 1.1586963560505715e-03  -2.6755153752277407e-02 -1.7304438473749479e-02 6.4384021395415287e-03  -2.9198121924342200e-02 -1.5659774589741049e-02 6.3299287906948385e-04  -2.8110495601406917e-02 -1.7133709184077875e-02 -2.4934358347618256e-03  -2.7872520412200258e-02 -1.4681284018027986e-02 6.2764387710887472e-03  -3.0391369899999441e-02 -1.2942092251670353e-02 1.0967360356338557e-05  -2.9209572082248697e-02 -1.4544670952204474e-02 -3.2877653105370785e-03  -2.9011047132267393e-02 -1.1960865819603164e-02 6.0229372826008081e-03  -3.1583049136812737e-02 -1.0083503525810665e-02 -6.9863608233017218e-04  -3.0281346366083501e-02 -1.1820206418723837e-02 -4.1437690032087669e-03  -3.0170519009682494e-02 -9.0899433199356783e-03 5.6660893377880441e-03  -3.2777555955018266e-02 -7.0767797022526944e-03 -1.4603360456895292e-03  -3.1321826221358345e-02 -8.9546840877007643e-03 -5.0348330513582309e-03  -3.1375764284325730e-02 -6.0250022150930300e-03 5.1826073623704423e-03  -3.3957043438412569e-02 -1.9524754648490805e-02 3.7089234632970073e-03  -3.3157274340876355e-02 -2.0960540209097944e-02 5.7739150571682932e-04  -3.2232272726392293e-02 -1.7853885544910551e-02 8.9882509876297485e-03  -3.2745200078501333e-02 -1.8091360101262489e-02 9.7682328588728825e-03  -3.4077317050936556e-02 -1.8635670395648542e-02 9.0822300548515996e-04  -3.4529022458614236e-02 -1.8060059921512103e-02 4.6102520276191982e-03  -3.4019411603185133e-02 -1.5597651758536231e-02 1.0588041181917411e-02  -3.5525480452691861e-02 -1.5820945661939114e-02 1.0531390368591627e-03  -3.5966636062375455e-02 -1.5262673788751836e-02 5.2940265482257099e-03  -3.5376857879855471e-02 -1.3239742289060160e-02 1.1084481277744983e-02  -3.6905879538472214e-02 -1.3017746853820140e-02 1.1267669019544503e-03  -3.7312525683815295e-02 -1.2653990354480837e-02 5.7907886333226138e-03  -3.6774265616619201e-02 -1.0904169597400839e-02 1.1310779186401519e-02  -3.8337163894788646e-02 -1.0144848895828963e-02 1.0754615380283408e-03  -3.8695812388049096e-02 -1.0038545176745441e-02 6.1014145430590850e-03  -3.8270253301128716e-02 -8.3955811568222974e-03 1.1342791482882499e-02  -3.9885128046449593e-02 -7.1325039542701942e-03 9.0806345299960199e-04  -4.0194006107784362e-02 -7.2653356788514555e-03 6.2704615798256820e-03  -3.9958417538398468e-02 -5.5584278524809256e-03 1.1213091001247167e-02  -4.1728974953536821e-02 -3.9164363683990532e-03 6.6607622192850317e-04  -4.1906481778011866e-02 -4.2223150626101418e-03 6.4103397519739711e-03  -2.5522975312669834e-02 -1.6608224697274653e-02 1.9301602129856345e-02  -2.5368685067536985e-02 -1.7904652907625357e-02 1.6245189402948574e-02  -2.4006436930789944e-02 -1.4821858043243806e-02 2.3337447243711645e-02  -2.4412104259095211e-02 -1.6600216089987983e-02 2.4574739254784969e-02  -2.6617828215198168e-02 -1.7909114429243596e-02 1.7110683995648406e-02  -2.6531307051736626e-02 -1.7271417779900523e-02 2.0398178584387819e-02  -2.5973523478520555e-02 -1.5607728963122952e-02 2.5737402700209470e-02  -2.8164600026360294e-02 -1.5642661345547936e-02 1.7888920937451546e-02  -2.8147855599285659e-02 -1.5391811026124302e-02 2.1366267897658841e-02  -2.7142590819852576e-02 -1.4124918082325818e-02 2.6492412817822282e-02  -2.9418341218164851e-02 -1.3357723319239673e-02 1.8391681888098893e-02  -2.9459735268364897e-02 -1.3442986352825910e-02 2.1917935009603116e-02  -2.8427518499592758e-02 -1.2631209129316151e-02 2.6763522295402273e-02  -3.0735842112124000e-02 -1.1064467280552734e-02 1.8635287835249082e-02  -3.0839509074086034e-02 -1.1491302201812352e-02 2.2116747319054830e-02  -2.9831811637093215e-02 -1.0853800461629435e-02 2.6722244136815565e-02  -3.2156813379638223e-02 -8.5731154347766358e-03 1.8689813844933605e-02  -3.2331238086611799e-02 -9.2899086400554942e-03 2.2070020921445766e-02  -3.1450559071458876e-02 -8.6196799725853646e-03 2.6596479887776619e-02  -3.3748279255234888e-02 -5.7196785536536912e-03 1.8580448362921529e-02  -3.3936790572051193e-02 -6.7424038992925346e-03 2.2030692195805286e-02  -2.2383650070561888e-02 -2.2824240953747611e-02 5.2337070252080333e-03  -2.4143276384200718e-02 -2.0486321738501418e-02 5.1392538820598356e-03  -2.5169621802935440e-02 -1.7934361098206716e-02 4.9345909460219569e-03  -2.6219964251501568e-02 -1.5339207705102621e-02 4.6798533308754602e-03  -2.7271596436911832e-02 -1.2645411927899610e-02 4.3470886968312731e-03  -2.8300864130104995e-02 -9.8086306732659539e-03 3.9363736371847893e-03  -2.9273669485902220e-02 -6.7851590224739886e-03 3.4328209737861828e-03  -4.4140929182729792e-02 -4.1251623235834239e-03 3.7482276263121591e-03  -4.3682613840800869e-02 -6.2249761234180060e-03 6.6092781738039180e-03  -4.1765296973625118e-02 -7.6291978332449842e-03 1.1199015031822655e-02  -4.0511479500078995e-02 -1.0029790761882521e-02 1.1338777255735665e-02  -2.3623762278034192e-02 -1.6502724666660525e-02 2.1238869504594034e-02  -2.4464093620878809e-02 -1.7330933497422547e-02 2.2374650250260020e-02  -2.6047445678065367e-02 -1.5678448212579549e-02 2.3407897379801760e-02  -2.7226044664647744e-02 -1.3742313928784037e-02 2.4107122251577670e-02  -2.8480368919711115e-02 -1.1796300678112208e-02 2.4440519377647671e-02  -2.9853792552340330e-02 -9.6068231600149080e-03 2.4514903475283213e-02  -3.1394850261585970e-02 -7.0335178663553819e-03 2.4481413446446262e-02  -3.1278470734767444e-02 -1.9398187875105284e-02 6.6219857984767712e-03  -3.2349855441406117e-02 -1.8461947039551844e-02 7.1403073956107779e-03  -3.3787336244287168e-02 -1.5665624810750164e-02 7.5827119268910038e-03  -3.5234023917860000e-02 -1.3062858930301048e-02 7.8196727999230650e-03  -3.6728382921658642e-02 -1.0440601823649859e-02 7.8591976934869277e-03  -3.8306762820641875e-02 -7.6588760273106227e-03 7.7298193390623890e-03  -3.9996466083113996e-02 -4.5976698927289407e-03 7.4263298714609127e-03  -3.0069054573493445e-02 2.3242259078119894e-02 1.9239404495233463e-02  -3.1470616580489566e-02 1.9622772203342066e-02 1.7688117707393772e-02  -3.1692260104175696e-02 3.5820906770656927e-02 1.6333860833400573e-02  -3.1919273137793559e-02 2.5447743264821843e-02 2.1792775320090781e-02  -3.1399946273791890e-02 3.1200204318562116e-02 1.0356393808545425e-02  -2.9828708777501694e-02 1.8503916084327641e-02 1.4607742153285695e-02  -3.1228520258985853e-02 1.4934497494905486e-02 1.3354836100368058e-02  -2.9331479065968703e-02 7.5840692713903717e-03 -1.7048700043283209e-03  -3.0662672452513303e-02 4.2961134804472764e-03 -2.2696937114309833e-03  -3.0928119106187719e-02 2.0572670486931007e-02 -9.0590026756643335e-03  -3.0927971810170467e-02 7.4996485248814563e-03 3.5171368673849457e-03  -3.0632981778807980e-02 1.7456333937242358e-02 -1.6515015834948750e-02  -2.9099879258224853e-02 4.3959132166656988e-03 -8.3364403054507191e-03  -3.0459846846629213e-02 1.2894971415665355e-03 -8.6082917153697761e-03  -3.0520405169542467e-02 1.7054737213013833e-02 2.3043930277414422e-02  -3.0523783685475456e-02 2.9059366421263673e-02 2.3729964654035929e-02  -3.0126010300865081e-02 1.1347174901106699e-02 2.0365152116272895e-02  -2.9914563624476084e-02 6.7306924576830442e-03 1.7254122072359490e-02  -2.9832427683089687e-02 2.8475404666560727e-03 1.3694580410420274e-02  -3.1121481575711714e-02 1.0992120910241428e-02 8.7023376592054707e-03  -2.9763008970857208e-02 1.4524892684297850e-02 9.6964322308429780e-03  -2.9667727592441569e-02 -6.1922558556777054e-04 9.5351103523404115e-03  -2.9601380675832404e-02 1.0937467011467802e-02 4.2982601428903106e-03  -2.9504491828743835e-02 -3.6606869689475769e-03 4.7686784687412205e-03  -2.9475612011524648e-02 -6.2903168806443342e-03 -6.4043018625699365e-04  -3.4585818965024585e-02 -2.0840008014688435e-02 -2.1524597173237436e-03  -3.6119893155246913e-02 -1.8020440535140184e-02 -2.2516338160033641e-03  -3.7469262397351044e-02 -1.5245945824469503e-02 -2.3729510590684536e-03  -3.8916514186101640e-02 -1.2316998281473044e-02 -2.5904072218331663e-03  -4.0433458023552429e-02 -9.2899094779128385e-03 -2.9439021390700259e-03  -4.2061262869188765e-02 -6.1306154555595318e-03 -3.3699582569136138e-03  -4.3830185258511803e-02 -2.8211292976045577e-03 -3.6845533767448316e-03  -3.1656222803613611e-02 1.6434064527260997e-02 -8.7332655284905643e-03  -3.1310232940530501e-02 1.3458627894610220e-02 -1.5971076944116730e-02  -2.9787128688219890e-02 -3.4518899067937689e-02 -1.7842364145989734e-02  -2.8536576050646502e-02 -3.2772080464274891e-02 -1.3957445018406546e-02  -3.0169958840726256e-02 -3.0469829505118524e-02 -1.2824376644478164e-02  -3.2494335085878887e-02 -2.6076251411519299e-02 -1.3935732478769201e-02  -3.0796583863342920e-02 -2.8408541969108650e-02 -1.5286165262652926e-02  -3.2053569712630993e-02 -3.0102168856126883e-02 -1.9268692217186960e-02  -3.4310196987786673e-02 -2.2967885725280537e-02 -1.5112355602859154e-02  -3.2757625532653649e-02 -2.5063060022639538e-02 -1.6651398589699391e-02  -3.4065962593703702e-02 -2.6561682573826934e-02 -2.0728965664482950e-02  -3.5774791957693862e-02 -2.0570140015076569e-02 -1.6457013356775459e-02  -3.4345668226606389e-02 -2.2582540473508717e-02 -1.8121077437721123e-02  -3.5717854893607473e-02 -2.3898283625773349e-02 -2.2269295329078859e-02  -3.7179137569945835e-02 -1.7949542666789581e-02 -1.7885725402922704e-02  -3.5749604469922092e-02 -2.0252461824298015e-02 -1.9687569644051630e-02  -2.9274442071637662e-02 -1.8160079787393403e-02 1.1842329007399966e-02  -3.0122334729090604e-02 -2.0411187566366961e-02 5.6798421385160121e-03  -2.8612978375924109e-02 -2.0239345848701563e-02 7.6800883657664101e-03  -3.0714904390178085e-02 -1.8446804236278678e-02 7.8967869894374012e-03  -3.1876136255496235e-02 -1.8593852961552634e-02 5.8969154916908391e-03  -3.0650316141743572e-02 -1.7927543147429083e-02 1.2503316519362399e-02  -3.2024967850686266e-02 -1.5889245365311406e-02 7.9268541719494674e-03  -3.3274259339855845e-02 -1.5842342456273195e-02 5.9708977894610696e-03  -3.2200317518620937e-02 -1.5398626829837871e-02 1.3052236011062974e-02  -3.3469372752013095e-02 -1.3254459715298015e-02 7.9104805773567068e-03  -3.4792124836670137e-02 -1.3168832586256087e-02 5.9591231619892477e-03  -3.3650208257784663e-02 -1.3026765632998103e-02 1.3342687284667790e-02  -3.4960008338352555e-02 -1.0559813274831024e-02 7.7212415697535961e-03  -3.6326247451555597e-02 -1.0427036316812291e-02 5.7805628335422868e-03  -3.5150950282897747e-02 -1.0664092252940058e-02 1.3357991492580556e-02  -3.6500712380303224e-02 -7.7128791253136273e-03 7.3781293348597890e-03  -3.7924748029580908e-02 -7.5342296666823872e-03 5.4281845028074935e-03  -3.6720471776359426e-02 -8.1070105267942640e-03 1.3173308346531612e-02  -3.8077147175536862e-02 -4.6360323451986353e-03 6.9119918126961406e-03  -3.9574285031042933e-02 -4.4240715688417297e-03 4.9344023035069861e-03  -3.8292063535527471e-02 -5.2458334111316176e-03 1.2846837930210497e-02  -2.9190078313262223e-02 1.3831863455953487e-02 2.4510907243126150e-02  -2.8834186376374745e-02 8.3216588149808753e-03 2.2355068882908075e-02  -2.8699722002933529e-02 3.9071089711631979e-03 1.9756691690704889e-02  -2.8579643008818940e-02 1.1650202005229476e-04 1.6608591086474903e-02  -2.8401034553373380e-02 -3.2560045449606689e-03 1.2838573760138460e-02  -2.8342038296141701e-02 -6.1056178045528937e-03 8.4895931332728044e-03  -2.8409095277009428e-02 -8.5153818544260167e-03 3.4586363798649006e-03  -2.7821666623081869e-02 -1.8269921552347020e-02 1.3966144525042839e-02  -2.9408971548674646e-02 -1.7594649026634480e-02 1.4767812625662948e-02  -3.0977686218572869e-02 -1.5067365791388719e-02 1.5413282338196315e-02  -3.2385408642353515e-02 -1.2776727296069972e-02 1.5770479464578685e-02  -3.3835891871196171e-02 -1.0458385883166700e-02 1.5852775708482654e-02  -3.5376845570047999e-02 -7.9190768901511652e-03 1.5738310513378147e-02  -3.7020157958428647e-02 -5.0873285966003025e-03 1.5681709955724241e-02  -2.2439156575304688e-02 -1.1729633073910414e-02 2.7885211419198100e-02  -2.2459387677069773e-02 -1.4543449340582619e-02 2.9034363839934612e-02  -2.3183500514814073e-02 -1.5441735279574247e-02 3.0152939498334724e-02  -2.4431162891403627e-02 -1.4812161768278901e-02 3.0960327707546170e-02  -2.5642049968599225e-02 -1.4044156259195402e-02 3.1132329640708126e-02  -2.6934525697717669e-02 -1.2977397514694317e-02 3.0869143969448874e-02  -2.8365776283001382e-02 -1.1386657470331381e-02 3.0333514973056478e-02  -3.3121318719351187e-02 -3.4556698934639558e-03 1.8292911486606632e-02  -3.2086379482661839e-02 -4.7722185791836810e-03 1.8961903563745944e-02  -3.2406094790061617e-02 4.2888570269493777e-03 1.9787729053565042e-02  -3.2129231620110499e-02 -7.3292660213770630e-04 1.9209127106774207e-02  -3.1908548075343844e-02 -9.1358360195443709e-03 1.9509728175429113e-02  -3.2866412414094319e-02 -1.3031075541916700e-02 1.7982022831526921e-02  -3.1874432939791475e-02 -1.3803943087236195e-02 1.9505930067731964e-02  -3.1824475494504595e-02 -8.0398491906012847e-03 1.6161885656351148e-02  -3.1964231105583753e-02 -1.0436492874790900e-02 1.3770354697718531e-02  -3.2706803954534368e-02 -1.4419249759857452e-02 1.8524204267480197e-02  -3.3532925221481616e-02 -1.3954568264014979e-02 1.6759924098720947e-02  -3.2447760399155479e-02 -1.2094032465805928e-02 1.0729018626689622e-02  -3.3656629252903990e-02 -1.4666598171231691e-02 1.6968297431751322e-02  -3.4308237042724322e-02 -1.4483465796054522e-02 1.4875899617015596e-02  -3.3099743012636164e-02 -1.3338716480455920e-02 7.1313857441179570e-03  -3.4617451883816770e-02 -1.4573424670524304e-02 1.4872615597311961e-02  -3.5104351596130047e-02 -1.4688127715888691e-02 1.2504551334155366e-02  -2.8983755033534987e-02 2.3789844456681787e-02 2.5680380172012941e-02  -2.8570353159999316e-02 1.7921394264826935e-02 2.2094506850406533e-02  -2.8377635594308157e-02 1.3113021039454656e-02 1.8287190975065308e-02  -2.8328019464832585e-02 9.0411463471086872e-03 1.4124378199956829e-02  -2.8171415298239730e-02 5.3546341185282684e-03 9.4257487321310202e-03  -2.7914638866735227e-02 1.9580563355171285e-03 4.1140953047991476e-03  -2.7692893493891712e-02 -1.1080663411478168e-03 -1.9340458493428555e-03  -2.2644510031499396e-02 -2.0349467969658339e-02 1.2733702924052855e-02  -2.4300015431787649e-02 -1.8771687391404644e-02 1.3019536758352676e-02  -2.5443930513570582e-02 -1.6147523655997323e-02 1.3285093549839743e-02  -2.6582198653957893e-02 -1.3606948987941082e-02 1.3439787404016957e-02  -2.7723504255685604e-02 -1.0960291014113626e-02 1.3459589006976079e-02  -2.8891212628640129e-02 -8.1210809444461404e-03 1.3337349904583438e-02  -3.0107231714650379e-02 -5.0097322629027094e-03 1.3106989236629462e-02  -2.7898083499686432e-02 9.5507899328805598e-03 2.5660657095436204e-02  -2.7652686877293893e-02 4.2372160081108343e-03 2.4257625803293201e-02  -2.7565315466889027e-02 -6.0054205266318426e-05 2.2286109456630395e-02  -2.7494905638282861e-02 -3.7326970835647295e-03 1.9700459541950818e-02  -2.7478052409206442e-02 -6.8141739309050906e-03 1.6560294383442219e-02  -2.7678610390398397e-02 -9.2922139581802857e-03 1.2813630299142266e-02  -2.8051347639357217e-02 -1.1239393827951132e-02 8.4750553093868794e-03  -2.4126505903169136e-02 -2.0153038383398880e-02 1.1742653666647188e-02  -2.3021620383487769e-02 -1.8196966410691268e-02 1.8306140770675036e-02  -2.4247465769584257e-02 -1.8008035017199983e-02 1.9215508378470920e-02  -2.5734490969808562e-02 -1.8690607397405225e-02 1.2052021458247873e-02  -2.6978821562873914e-02 -1.6118789206228178e-02 1.2263805729992118e-02  -2.5716170739633313e-02 -1.5811538910014036e-02 2.0053798753919737e-02  -2.8147418829150547e-02 -1.3540223158376106e-02 1.2371273535097168e-02  -2.6858657496211406e-02 -1.3499860100803037e-02 2.0630603683709062e-02  -2.9351577333201598e-02 -1.0886958345877360e-02 1.2329334521701700e-02  -2.8056365255794358e-02 -1.1183460228036414e-02 2.0947457121427076e-02  -3.0610185790042495e-02 -8.0485495128278916e-03 1.2152503189322159e-02  -2.9328635294615671e-02 -8.6459402655893539e-03 2.1074052943887589e-02  -3.1972067430912549e-02 -4.9423568993661555e-03 1.1833769065935215e-02  -3.0702956453008842e-02 -5.7168256111085128e-03 2.1045367986761095e-02  -3.1011938568642268e-02 -7.4215991789864212e-03 1.9342553275268057e-02  -3.0947028770335651e-02 9.6971252606053516e-04 2.0884074264250544e-02  -3.0734052441304359e-02 -3.6621639421667695e-03 2.0837742460542000e-02  -3.0911604627337524e-02 -1.1359541413913621e-02 2.0141008445319492e-02  -3.1679999944672799e-02 -1.2255714731554720e-02 1.9717053410272443e-02  -3.0846246056466107e-02 -1.3814071339304804e-02 2.0742502889200300e-02  -3.0490645836967287e-02 -7.6444273137160615e-03 2.0110791402077791e-02  -3.1287996566563586e-02 -1.4610882753870831e-02 2.0900186052328129e-02  -3.0464713778169058e-02 -1.0573689956564509e-02 1.8862473873820763e-02  -3.2348783570519485e-02 -1.4621266003864531e-02 2.0369051736059074e-02  -3.0885816874576092e-02 -1.2475807310680738e-02 1.7033138219782779e-02  -3.3433612249424337e-02 -1.4443042701238853e-02 1.9194329275044952e-02  -3.1665002136539930e-02 -1.3639906950090631e-02 1.4570841610229483e-02  -3.4612250427899262e-02 -1.3858238276232266e-02 1.7614356912759050e-02  -3.2502196089225555e-02 -1.4516929623809146e-02 1.1544401709198725e-02  -3.1218796613906627e-02 -3.5868300486022769e-02 -2.1013253101881329e-02  -3.1242356335540931e-02 -3.1218463786642420e-02 -1.4774478412609145e-02  -3.3411311835103853e-02 -2.9623063434700399e-02 -1.6266648795915759e-02  -3.3607154409029776e-02 -2.6624304615492214e-02 -1.5945749687918748e-02  -3.5921033280882524e-02 -1.9391056384269877e-02 2.2548517542059594e-03  -3.5967983374724052e-02 -2.0731735585341839e-02 -2.5082190168143875e-03  -3.4691012160716357e-02 -1.9062784668726362e-02 4.4343202446133169e-03  -3.5639181753985665e-02 -1.7783389783907470e-02 5.3137730413411726e-03  -3.7759874879299805e-02 -1.8397289684764215e-02 -2.3605725642878131e-03  -3.7307881531045535e-02 -1.7740136277753445e-02 3.0416628927779185e-03  -3.6993971367191056e-02 -1.5085816587636467e-02 5.9985478815172784e-03  -3.4759263865948131e-02 -1.7467908562302851e-02 7.8826704054920354e-03  -3.5162221084969983e-02 -1.7978269509569003e-02 9.0794684199658263e-03  -3.6395763217502347e-02 -1.5624771645300814e-02 1.0141564397780717e-02  -3.8660855174905903e-02 -1.5107656308370597e-02 3.5328049557321606e-03  -3.7577948263794819e-02 -1.3585597850839697e-02 1.0784965149622855e-02  -3.8339351289633498e-02 -1.2606867790892030e-02 6.4416532989735988e-03  -4.0021521137575837e-02 -1.2558039549531112e-02 3.8147639944343609e-03  -3.8795614790605566e-02 -1.1574865491114169e-02 1.1104597168056597e-02  -3.9710948374997640e-02 -1.0103659079630015e-02 6.6672771658244506e-03  -4.1386967887821535e-02 -9.9629615862011824e-03 3.8765647145366068e-03  -4.0078724762813808e-02 -9.3897662962044923e-03 1.1200062574758935e-02  -4.1160597630310318e-02 -7.4190746510504587e-03 6.7558094803023610e-03  -2.2211311551516105e-02 -1.4874836047813996e-02 2.5270621258379727e-02  -2.2594547358390827e-02 -1.6602309384896010e-02 2.6462273546059786e-02  -2.4058268910301498e-02 -1.5805603266214118e-02 2.7627933197808985e-02  -2.5153717055915958e-02 -1.4389940501004780e-02 2.8440605938527014e-02  -2.6340304750019517e-02 -1.2880364403801364e-02 2.8817214969120691e-02  -2.7604382524721180e-02 -1.1082903470705627e-02 2.8868731585275902e-02  -2.9041090646397903e-02 -8.7793388727267496e-03 2.8736782624653193e-02  -2.6961266220109775e-02 -1.8720039703040460e-02 1.3393853635719136e-02  -2.785272801