<?xml version="1.0"?>
<VTKFile type="UnstructuredGrid"  version="0.1"  >
<UnstructuredGrid>
<Piece  NumberOfPoints="975" NumberOfCells="4137">
<Points>
<DataArray  type="Float64"  NumberOfComponents="3"  format="ascii">3.040499123927028 1.091262261578935 1.559183395965518  3.102096739291639 1.236358431580989 1.46904986684666  3.169241256971824 1.141308152273055 1.537752109566606  3.176981406455282 1.102678229151692 1.483894916483357  3.108010766895289 1.203629223913985 1.412163689746041  3.047179038934279 1.050990039994738 1.503882937041196  3.18494404737948 1.064055964142823 1.430110847076315  3.114191922934284 1.170873787540793 1.355313362381191  3.054057651090953 1.010679264911963 1.448618133800213  3.192987752717754 1.025459008851886 1.3763626568528  3.120453511856445 1.138121128346653 1.298480016151935  3.061007215987506 0.9703682587442582 1.393357882359062  3.200992996189763 0.9868998259523116 1.322621047321907  3.126673659497658 1.105395823828184 1.241635020796153  3.067931120890727 0.9300864786433334 1.338066238818964  3.208837959429416 0.9483867104148036 1.268859281981767  3.132727767554685 1.072714097912225 1.184738958048859  3.074743551154591 0.8898504931952843 1.282692347281298  3.216386403033194 0.9099154890879768 1.215044355419397  3.138482801266036 1.040093028906617 1.127734595383005  3.081330065082594 0.8496377031879285 1.227207218173386  2.732335376117434 1.66638585452141 1.290071810752866  2.722950465402513 1.820323141355819 1.239402432854118  2.840498700174469 1.747052140861566 1.257027532418624  2.838006570746491 1.727167329260977 1.198873334768759  2.719543608276602 1.800481269578528 1.181166422553479  2.729195632697138 1.64624814321405 1.230829993240138  2.835580694609585 1.707288046412273 1.140678693780197  2.71616071225073 1.780646286974157 1.122890738777097  2.726089635822877 1.626100368369329 1.171540583342557  2.83318058012887 1.687406608899301 1.082457210156879  2.712782907055408 1.76080999128512 1.064592257678306  2.722991246875437 1.605947501501507 1.112217682646655  2.830762850662639 1.667530216772567 1.024211737039129  2.709384556216063 1.740973452585005 1.006273502290385  2.719871850186728 1.585806611846631 1.052859343882602  2.828277939249429 1.647667016352889 0.9659291587650127  2.705938789081356 1.721139543619658 0.9479202003588051  2.716700401368031 1.56569893092354 0.9934447301293239  2.825663071658508 1.627820563046296 0.9075814962504192  2.702416814164366 1.701303766422468 0.8894957279824569  2.713439913092545 1.545643363543238 0.9339231979165886  2.836457456246591 2.198102385851322 1.089313687146886  2.933066974147376 2.338165343377995 1.027752844124886  2.973111473277982 2.222660469096899 1.077802056503666  2.972784870544727 2.198295994895777 1.01983875408022  2.933484481343144 2.311532721631965 0.9683490439959253  2.835372706457253 2.172952000431572 1.031449236443224  2.9725872222452 2.173963856469749 0.9618821319754185  2.93404360585803 2.284923708610853 0.9089593426763549  2.834379098853268 2.147825860753317 0.9735850551530009  2.972443044596548 2.149637070851713 0.9039463243651543  2.93465979793192 2.258318078335722 0.8496024521346129  2.833420794655984 2.122704334342985 0.9157349101669681  2.972287016830208 2.125300820080722 0.8460423211270423  2.935260902390191 2.231702612399366 0.7902846178467867  2.832445579065267 2.097571543139338 0.8579073770583727  2.97204228109773 2.100934855932785 0.7881782133170603  2.935767690024595 2.205060063479256 0.7310132499191299  2.831394180698538 2.072404908479665 0.8001082484447872  2.971596483834642 2.076496006110401 0.7303676899027021  2.936069352598302 2.178355430811687 0.6718005806286018  2.830195163807304 2.047154916570473 0.7423418086211161  3.087019441450381 2.169663283727971 1.097883590246876  3.054059112763204 2.321715262458607 1.036045596114644  3.187519907526141 2.289427642784629 1.046595506300232  3.185645991976933 2.265129607646258 0.9881490553775447  3.053736913319741 2.296328283932687 0.9770029345215313  3.085707766328044 2.147017349000541 1.04038097338391  3.084514829438119 2.124402722871118 0.9828862879531109  3.053549845220674 2.270982838530896 0.9180019365133346  3.18388093080473 2.240869073922777 0.9297470253317902  3.182164075620565 2.21662174164921 0.8713853098580211  3.0534224662097 2.24564171845863 0.8590355104975785  3.083377163546451 2.101800806206189 0.9254240528469513  3.180441172421088 2.192373447692473 0.8130767961851039  3.053286540503378 2.220293828688467 0.8001159820623344  3.082231269320364 2.079190643909028 0.8679942714521677  3.178646930291358 2.168107773816459 0.7548367694593585  3.053062872415957 2.194924822883837 0.741254369847399  3.081002110608333 2.056556207900003 0.810609273403735  3.176696096698505 2.143802674323737 0.6967010390369202  3.05263292494478 2.169511092013469 0.6824808300697491  3.079585694830139 2.033862768988044 0.7532908468811224  2.922441510566666 1.993031037938122 1.168084460005123  3.039465070876777 1.926748248910554 1.188451943375137  2.968016789682111 1.833903506421042 1.222795298772328  2.966210915395237 1.814018124402225 1.165701739470076  3.038049367238037 1.906679300046185 1.13168292043173  2.92043880460831 1.972346928599854 1.11086116479221  2.918528943198429 1.951685010424158 1.05361909001514  3.0367561378042 1.886630368146145 1.074895881266981  2.964509206915313 1.794148825209307 1.108572000423656  2.916657261331845 1.931025308861308 0.9963740079968451  3.035517150489802 1.866582159648579 1.01810566730666  2.962851431645515 1.774280138996774 1.051427497265887  3.034267310051298 1.846526656562103 0.9613197890285549  2.914771955952282 1.910355596814184 0.9391333393780477  2.961179363357724 1.754407986504537 0.9942720782877388  3.032930877421286 1.826453709970514 0.9045338749358894  2.912813800635992 1.889660340635979 0.8818934443589579  2.959426701852094 1.73452823455821 0.937095697481701  3.03140881034506 1.806342464514167 0.8477371617888037  2.910704264356507 1.868911132043669 0.8246353463620641  2.95750911882058 1.714623260668019 0.8798769438442655  3.330783383374958 2.122041728024408 1.108579997867051  3.300552942699741 2.270622312990229 1.049289299535241  3.427695613498731 2.262237779753202 1.046191208901116  3.423597084532243 2.238048654430592 0.9885679366834934  3.297706522627931 2.246483971508183 0.9912942630397066  3.328511951557188 2.099845146547191 1.052260616178745  3.4195565506985 2.213885317179087 0.9310003874300817  3.29494674844546 2.222382579889587 0.9333523592215506  3.326325244338597 2.077679457691201 0.9959727099334545  3.415533584823503 2.189750547326644 0.8734854404440318  3.292222133403299 2.198304792544338 0.8754604866557719  3.324180232899009 2.055528882610119 0.9397209858293259  3.411504643732318 2.165625793607625 0.8160281856538857  3.289492128810087 2.174232199908779 0.8176255381579589  3.322033398205594 2.03337842514701 0.8835131600950553  3.407442531086926 2.141491753355861 0.7586444289436555  3.28670706694956 2.150148971204795 0.7598670847621286  3.319833028784898 2.011213282712299 0.827364739588503  3.403315843837199 2.117321556237978 0.7013743990859553  3.283806569237787 2.126028173007174 0.7022273997115612  3.317509750094108 1.989008651531841 0.7713115300873361  3.348715081288336 1.532965490217844 1.340201426245352  3.439705519800317 1.449122362668344 1.384566689628491  3.308059610106487 1.387809556802674 1.407063786990254  3.311868991427054 1.359660213565135 1.352073609780115  3.442145177079245 1.421733715671116 1.330881434151755  3.350992026096556 1.507957057366861 1.285611274548542  3.315900677416824 1.331510621713023 1.297146477930341  3.444762434473098 1.394350776013112 1.277274730675565  3.35346881675475 1.482943457892224 1.231073894412696  3.320014674135074 1.303373456839664 1.242264234142513  3.447452689384686 1.366979389084396 1.223725064434054  3.356024202921289 1.457930517596982 1.176576695890585  3.324097117095895 1.275253733354488 1.187413522863432  3.450127785180669 1.339627506582445 1.170221141234152  3.358554782379032 1.43292387133143 1.122111485664279  3.328023247147186 1.247158978137566 1.132585766377168  3.452688926986483 1.312311643422801 1.116764869578706  3.36094934847406 1.407938604783951 1.06767781849942  3.331664230860057 1.219132646005783 1.077738946017839  3.454988515954353 1.285072933649271 1.063365859321723  3.363080287034886 1.383021231337618 1.013262423999367  3.68422890083767 2.21604337823327 1.041538996904296  3.802249177754729 2.246259520028435 1.014798859737778  3.821032046325574 2.137800910146742 1.061363168695634  3.815074387350271 2.112885909938997 1.006402622112045  3.795229880025774 2.220122032713872 0.9584134776115585  3.67812992576827 2.19098249996088 0.9852933282247315  3.80907314049061 2.087974150959856 0.9514840123998786  3.788170464831659 2.194001073860056 0.9020729192770331  3.672016389173439 2.165937242439991 0.9291042672820834  2.833823160162062 1.897446599888609 1.20698266505497  2.831007992040145 1.877192144730455 1.149526460129607  2.82824876913051 1.856953244971137 1.092031164120068  2.825514266357088 1.836714536945205 1.034516403069451  2.822764035321357 1.816470131476002 0.9769906491386641  2.819954446840018 1.796213517891558 0.9194463416659968  2.817032387853741 1.775928153957172 0.8618657104663962  3.450187668713248 2.13676030613993 1.096237968007939  3.5515785663922 2.263811817015082 1.033982841254719  3.587134280571705 2.155461272661626 1.078820748183404  3.582230109743364 2.131556673043518 1.023144829598809  3.546131670930459 2.238964269384286 0.9767102490562386  3.44637283873471 2.11357765770288 1.040325754253915  3.577342288332191 2.107670426186398 0.9675290347467502  3.540702409422216 2.214141232278735 0.9194937453496426  3.442610828764723 2.090424072178568 0.9844610151736908  3.572451020929614 2.083807433984637 0.9119596853341295  3.535270640392636 2.189351324015817 0.862332742002079  3.438869888055595 2.067291442579184 0.9286414730297001  3.567553129878124 2.059952230621985 0.8564426161103428  3.52983003241817 2.164575917123745 0.8052319979314957  3.43512474299250
[...]
<PointData  Vectors="f_16"> 
<DataArray  type="Float64"  Name="f_16"  NumberOfComponents="3" format="ascii">3.3981627014847519e-02 -4.7632076841364772e-02 -5.8315200862762227e-02  3.4417373563338349e-02 -5.1432847127193600e-02 -6.9437142902474935e-02  3.2753245356689623e-02 -4.8417029030025587e-02 -5.9636178547178571e-02  3.3646767931822495e-02 -5.1182687676116161e-02 -5.6234548113325816e-02  3.5404698548024346e-02 -5.4592952340778080e-02 -6.6751943770827313e-02  3.4922786543289237e-02 -5.0524910566901039e-02 -5.4687121735170825e-02  3.4794299478137336e-02 -5.3817045269052274e-02 -5.3001310501368817e-02  3.6591674738584594e-02 -5.7528906553593967e-02 -6.4122602663668607e-02  3.6042206488814538e-02 -5.3255569254499896e-02 -5.1354504441794457e-02  3.5906951186458903e-02 -5.6339051529944943e-02 -4.9978613847449303e-02  3.7750946931067383e-02 -6.0209616089012631e-02 -6.1556219368323957e-02  3.7140378806245170e-02 -5.5898349416549122e-02 -4.8255263933304010e-02  3.7007954317148220e-02 -5.8896585054959372e-02 -4.7009781945055222e-02  3.8880369082140612e-02 -6.2796996946346564e-02 -5.8958265018296402e-02  3.8245555621586505e-02 -5.8607539496333586e-02 -4.5221928467142916e-02  3.8113671817793925e-02 -6.1630312626068696e-02 -4.3949412550927679e-02  4.0026858580501291e-02 -6.5394452241573794e-02 -5.6257852709414968e-02  3.9363209076428179e-02 -6.1521420722165050e-02 -4.2121664127149662e-02  3.9167382023394044e-02 -6.4614397981483274e-02 -4.0713713511184510e-02  4.0942136710247427e-02 -6.7872036917886278e-02 -5.3466102401702562e-02  4.0512681933265501e-02 -6.4808472770975914e-02 -3.8817574078535790e-02  4.0151644649106394e-02 -6.0797420371736223e-02 -1.0176038004789509e-01  4.0636374017086252e-02 -6.2699556129695050e-02 -1.0523252626485791e-01  3.8825887037830215e-02 -6.1371000644056269e-02 -1.0202420533478503e-01  3.9976089597931586e-02 -6.2832976775515831e-02 -1.0237878765845529e-01  4.1706703286275987e-02 -6.3638148371969669e-02 -1.0591637727617519e-01  4.1257942967453345e-02 -6.2861233193016522e-02 -1.0176643274433149e-01  4.1149796480360865e-02 -6.3905345901142427e-02 -1.0237490347707401e-01  4.2817562430951202e-02 -6.4240338485119119e-02 -1.0620665123653998e-01  4.2398973762590046e-02 -6.4483719985222357e-02 -1.0147422731049538e-01  4.2329447528631173e-02 -6.4694125323537716e-02 -1.0204304038656209e-01  4.3951448847949895e-02 -6.4589721889263818e-02 -1.0612728790340237e-01  4.3556439145889560e-02 -6.5783131622820151e-02 -1.0088799753715118e-01  4.3510913815094525e-02 -6.5076005914125726e-02 -1.0147865771108951e-01  4.5274336970689652e-02 -6.4489978766835834e-02 -1.0580340200927844e-01  4.4858983706979397e-02 -6.6712064283422801e-02 -1.0011513947366749e-01  4.4751823945878462e-02 -6.4283546041926848e-02 -1.0091801899782328e-01  4.6640192651448587e-02 -6.3190229065001324e-02 -1.0545135895509705e-01  4.6236938638962992e-02 -6.6679553553460988e-02 -9.9338958808351294e-02  4.6028326697405295e-02 -6.2016358905987889e-02 -1.0038808623452808e-01  4.7925614766364241e-02 -6.0368027171873576e-02 -1.0510500582076716e-01  4.7582814659284912e-02 -6.5134977959086904e-02 -9.8605247632767901e-02  3.9546868252792078e-02 -6.1534925141431621e-02 -9.6104517803824036e-02  3.8182763646923884e-02 -5.7937981666275042e-02 -8.6746691286922750e-02  3.7124645728858367e-02 -6.0432351993812410e-02 -9.2116038329074071e-02  3.8488845164516013e-02 -5.8013281292372036e-02 -9.3932583289626559e-02  3.9556266554402246e-02 -5.4677900224056296e-02 -8.8741198654321937e-02  4.0798092473889547e-02 -5.9330366933376052e-02 -9.7951411613617201e-02  3.9802155911633538e-02 -5.5628208225117291e-02 -9.5318477271500598e-02  4.0945428244931338e-02 -5.1469769599309684e-02 -9.0302815542253917e-02  4.1972885238369818e-02 -5.7207415488681440e-02 -9.9319152766321001e-02  4.1107267619135142e-02 -5.2866701591835034e-02 -9.6332628905208315e-02  4.2302898871388772e-02 -4.7511030392223375e-02 -9.1620134566880798e-02  4.3365322538866255e-02 -5.4630007723718156e-02 -1.0035122105223672e-01  4.2325941228648675e-02 -4.9080063461145712e-02 -9.7210907089341256e-02  4.3358698141970173e-02 -4.3105963360128549e-02 -9.2839499485961083e-02  4.4610166376045854e-02 -5.0980213462612799e-02 -1.0119857816208232e-01  4.3355725299731897e-02 -4.4698862940499115e-02 -9.8042406728272344e-02  4.4265145808511625e-02 -3.8618663054740078e-02 -9.4053257568435272e-02  4.5559007936746644e-02 -4.6605457194237733e-02 -1.0198385671597526e-01  4.4243669160685895e-02 -4.0162567245255638e-02 -9.8857373653828698e-02  4.5187097666826041e-02 -3.4171803098073036e-02 -9.5263653092354378e-02  4.6284824483473229e-02 -4.1996099214205163e-02 -1.0275208908753924e-01  3.5047280610219105e-02 -6.0694736967240967e-02 -9.2011471377397416e-02  3.5972412486844456e-02 -5.7925424404246653e-02 -8.5096458888829565e-02  3.3667995861802157e-02 -5.7982795643513586e-02 -8.3810105612308367e-02  3.5152149876360200e-02 -5.5068410770081948e-02 -8.5674493903464516e-02  3.7427730129177855e-02 -5.4764568339573848e-02 -8.7016861150655003e-02  3.6456359787867952e-02 -5.8657929631934426e-02 -9.3693796358407189e-02  3.7790718207993866e-02 -5.6678248766507067e-02 -9.4937569221368048e-02  3.8834660251657070e-02 -5.1728898053099819e-02 -8.8527752762617859e-02  3.6576978198144601e-02 -5.2323001556820042e-02 -8.7138913557291545e-02  3.8020715699119703e-02 -4.8909921010676205e-02 -8.8329518090987671e-02  4.0228682279125821e-02 -4.8000206039632280e-02 -8.9776316520920579e-02  3.9102223211871893e-02 -5.4451157088540508e-02 -9.5834777778876654e-02  3.9332972794834130e-02 -4.4812721998497840e-02 -8.9386391526703315e-02  4.1432559231639673e-02 -4.3717001583177192e-02 -9.0910811691638976e-02  4.0366408678394597e-02 -5.1075070061476650e-02 -9.6543650707929793e-02  4.0543700659438013e-02 -4.0440233120845381e-02 -9.0420388790828532e-02  4.2490312849931378e-02 -3.9274656659616082e-02 -9.2031183763683425e-02  4.1501651303099400e-02 -4.6883298534583201e-02 -9.7182892365377568e-02  4.1687703204481022e-02 -3.6058524155606723e-02 -9.1456808660491634e-02  4.3497523635959004e-02 -3.4851751033875888e-02 -9.3162367014714462e-02  4.2515684956168032e-02 -4.2373742412180601e-02 -9.7810932328889336e-02  3.7722340465243247e-02 -6.2639922315762431e-02 -1.0094717549935607e-01  3.5769266263263717e-02 -6.1884032321260815e-02 -9.9335908797233669e-02  3.6943432467333628e-02 -6.1667281340225956e-02 -1.0080999511575511e-01  3.8182900205160387e-02 -6.2406605404167474e-02 -1.0151006474817501e-01  3.7076940941750798e-02 -6.1860341589897887e-02 -1.0036353769746383e-01  3.8959250793905845e-02 -6.2087007943551806e-02 -1.0221519335265283e-01  4.0186364174827544e-02 -6.1368147347065964e-02 -1.0301740772007922e-01  3.8354569981806724e-02 -6.1612865983044190e-02 -1.0095548277515379e-01  3.9419607308500394e-02 -6.2849806953577128e-02 -1.0180577674938314e-01  4.1403145313530516e-02 -6.0484758229031023e-02 -1.0341397376471813e-01  3.9609290161763316e-02 -6.1175720795463261e-02 -1.0116482347280684e-01  4.0654702867184929e-02 -6.3047554174995579e-02 -1.0174195868732136e-01  4.0695768445183404e-02 -6.0082465930441080e-02 -1.0114746365273873e-01  4.2587105738148376e-02 -5.8832959378505488e-02 -1.0359778966702714e-01  4.1719803851751502e-02 -6.2764696528823036e-02 -1.0144895403237036e-01  4.1843590442566296e-02 -5.7644470269049015e-02 -1.0109388362220444e-01  4.3795928948429298e-02 -5.5815167801015426e-02 -1.0372565771940660e-01  4.2875474731803968e-02 -6.1181656608707065e-02 -1.0112950161701394e-01  4.2964114299308992e-02 -5.3952093518334861e-02 -1.0102575504974687e-01  4.4885916892622925e-02 -5.1638168228610011e-02 -1.0383889562996228e-01  4.4080229389211398e-02 -5.8160018070075238e-02 -1.0081034958038820e-01  3.1063892610391788e-02 -5.9688862435271106e-02 -8.8030239298876545e-02  3.1850721438102837e-02 -5.7614841935452354e-02 -8.2061364593809916e-02  2.9976294188175309e-02 -5.6793342386748262e-02 -7.9229915060906750e-02  3.1538527514239960e-02 -5.4122296647142278e-02 -8.1065291903526765e-02  3.3380341120627245e-02 -5.4862060598354113e-02 -8.3903352033317530e-02  3.2583458030310743e-02 -5.8022090588565528e-02 -8.9581817899465177e-02  3.3006841199907322e-02 -5.1578286101731978e-02 -8.2516482271793062e-02  3.4822861200822459e-02 -5.2229724508949311e-02 -8.5363484360039876e-02  3.4034497219714549e-02 -5.6369443815347753e-02 -9.0721799325004612e-02  3.4562729721564406e-02 -4.8473771804295102e-02 -8.3707799461166826e-02  3.6301398199756661e-02 -4.9019193126078442e-02 -8.6538801376757582e-02  3.5391596176164171e-02 -5.4567996469266217e-02 -9.1558215261297080e-02  3.6107365839994070e-02 -4.4575951415552074e-02 -8.4758315390167691e-02  3.7713036340018054e-02 -4.5045518483791389e-02 -8.7565349131449602e-02  3.6711063722062794e-02 -5.1657818372297125e-02 -9.2174912951140942e-02  3.7572439085932018e-02 -4.0356596170970593e-02 -8.5769740796113436e-02  3.9060447688248560e-02 -4.0748115269889140e-02 -8.8564335478987663e-02  3.8015756729292631e-02 -4.7791969184222037e-02 -9.2705237456483194e-02  3.8904217554995665e-02 -3.6144586495559336e-02 -8.6792040916612856e-02  4.0303073428839015e-02 -3.6426877718653730e-02 -8.9573080347001094e-02  3.9249842787475148e-02 -4.3496301437496679e-02 -9.3223598309488440e-02  3.1392314296998236e-02 -5.5868007086949979e-02 -8.3622153493679768e-02  3.0090510755044625e-02 -5.3839750489938581e-02 -7.6562780092406857e-02  3.2027696001798098e-02 -5.3489826969447866e-02 -7.5879623594242829e-02  3.3182352665534869e-02 -5.6324562208309774e-02 -7.4072374241505173e-02  3.1370455019238908e-02 -5.6452166707824859e-02 -7.5037581431393413e-02  3.2753376745795607e-02 -5.8290959052190609e-02 -8.2606388340305620e-02  3.4433019357676717e-02 -5.8845863950835853e-02 -7.2216141057402192e-02  3.2674213184733521e-02 -5.8704431429669211e-02 -7.3456748987661094e-02  3.4088780166789380e-02 -6.0301534944185713e-02 -8.1477366559131834e-02  3.5644806435073242e-02 -6.1063744295717676e-02 -7.0317308914699492e-02  3.3938898109894415e-02 -6.0655749623202235e-02 -7.1797663342318907e-02  3.5363633369870438e-02 -6.1995932920751166e-02 -8.0213264610262486e-02  3.6812491976812446e-02 -6.3108710022458325e-02 -6.8317060086788603e-02  3.5162391016434577e-02 -6.2406352017926478e-02 -7.0023668973926992e-02  3.6570657226004472e-02 -6.3464212585458674e-02 -7.8796195768464430e-02  3.7832270100723403e-02 -6.4993156297800517e-02 -6.6177309439470089e-02  3.6249830351827231e-02 -6.3973318464798479e-02 -6.8120824027267574e-02  3.7527982145983040e-02 -6.4460207209123904e-02 -7.7275250771076720e-02  3.8820790069108296e-02 -6.6242108705760652e-02 -6.3999034935293492e-02  3.7324474423358928e-02 -6.4791028257970840e-02 -6.6168991789839343e-02  3.8684234553053830e-02 -6.4374180088207944e-02 -7.5748015148932382e-02  2.6721851992725754e-02 -5.4867718804985928e-02 -7.4476885849253951e-02  2.5683109587584473e-02 -5.2800483060367658e-02 -6.9671477088676159e-02  2.5056471918524986e-02 -5.4444333701866000e-02 -7.3834512515058875e-02  2.6780228847815529e-02 -5.2703329934707367e-02 -7.5353552797561840e-02  2.7382519355941059e-02 -5.0325648271248594e-02 -7.1443905176983083e-02  2.8389386308710553e-02 -5.2555078825102353e-02 -7.6228600415229955e-02  2.8440597966543212e-02 -5.0912728184527092e-02 -7.6517787936621090e-02  2.9112895955356974e-02 -4.7794225927629129e-02 -7.2867820862919597e-02  2.9953589039968816e-02 -5.0277069830038539e-02 -7.7618923982337829e-02  3.9073161454851818e-02 -6.2772399032976628e-02 -1.0357401222832424e-01  4.0220843681874702e-02 -6.3060059960784787e-02 -1.0454129401209467e-01  4.1385697634379139e-02 -6.3087092153729540e-02 -1.0508135801184253e-01  4.2558385406377040e-02 -6.2909155182779508e-02 -1.0522216957601505e-01  4.3787796924841388e-02 -6.2173502786749740e-02 -1.0510357879858520e-01  4.5054891475890257e-02 -6.0118639930405414e-02 -1.0496557780620584e-01  4.6261700416700788e-02 -5.6653284014142755e-02 -1.0481563395870190e-01  2.9365335327437934e-02 -5.8549146411578601e-02 -8.4377485266603575e-02  2.8413952598795467e-02 -5.5459795805335076e-02 -7.5828853976742189e-02  2.7600253060843641e-02 -5.6989342380054750e-02 -7.9886220118957907e-02  2.9228772385489630e-02 -5.5114717336909473e-02 -8.1528008365788274e-02  3.0019093145160471e-02 -5.2790157474936671e-02 -7.7676944634748141e-02  3.0932373362072191e-02 -5.6802133376671442e-02 -8.5998866804309765e-02  3.0769164259506286e-02 -5.3228101664221969e-02 -8.2782725390190104e-02  3.1565991832363104e-02 -5.0176496467943803e-02 -7.9153693846166204e-02  3.2410295319852733e-02 -5.5047297146143606e-02 -8.7215523246805413e-02  3.2355593513315170e-02 -5.1069222665328450e-02 -8.3735073515697825e-02  3.3234483730263775e-02 -4.7066297654262658e-02 -8.0375276370196938e-02  3.3888114589643824e-02 -5.3099591425318719e-02 -8.8104226816493367e-02  3.3971159212178040e-02 -4.7900370147123859e-02 -8.4553290508053228e-02  3.4888939028780715e-02 -4.3181015378661654e-02 -8.1484543808799534e-02  3.5320268778809623e-02 -5.0067854739346336e-02 -8.8823834089287623e-02  3.5508638518629884e-02 -4.4034587962324796e-02 -8.5312825296959063e-02  3.6436260277063391e-02 -3.9079299769236256e-02 -8.2563617732177366e-02  3.6742983654319113e-02 -4.6215932970090363e-02 -8.9470944760693949e-02  3.6882271567308958e-02 -4.0002962478970686e-02 -8.6056262195034011e-02  3.7813539411859734e-02 -3.5033044540916859e-02 -8.3651119945527055e-02  3.8087421715562099e-02 -4.2044643759401173e-02 -9.0107565662904981e-02  3.5552263920010277e-02 -5.0750962606841442e-02 -6.7187235247300789e-02  3.6562476957976452e-02 -5.4047033652004271e-02 -6.4138133671727229e-02  3.7741009743661715e-02 -5.7083422734900274e-02 -6.1239304292443383e-02  3.8909117726020445e-02 -5.9920019331750306e-02 -5.8453641192832050e-02  4.0076874523482686e-02 -6.2730020172497819e-02 -5.5667285821314062e-02  4.1236572334590549e-02 -6.5648775428715722e-02 -5.2761456324667041e-02  4.2331121264786616e-02 -6.8471029356471286e-02 -4.9758476689017013e-02  3.8650493527538465e-02 -5.2187466064502301e-02 -7.5264125427934328e-02  3.6878301816142073e-02 -4.8884957977010736e-02 -6.6889561827445015e-02  3.6608738887649026e-02 -5.4100484005465729e-02 -7.7660136572271790e-02  3.8122264033601069e-02 -5.0026843343907459e-02 -7.9589000165753862e-02  3.8526806821096160e-02 -4.3807167893871027e-02 -6.8501749033400658e-02  4.0143946182838626e-02 -4.7614250877388950e-02 -7.7083635838782888e-02  3.9622343071144935e-02 -4.5936754291437759e-02 -8.1139705843543103e-02  3.9957991852471321e-02 -3.9061752795045632e-02 -6.9987443662097332e-02  4.1530600372037471e-02 -4.2991340755174565e-02 -7.8645782290632946e-02  4.0909648683964267e-02 -4.1508250492418165e-02 -8.2566229623158613e-02  4.1221425598521134e-02 -3.4516681979475133e-02 -7.1464703789250447e-02  4.2620720345165050e-02 -3.8369016989724086e-02 -8.0126501154330385e-02  4.2036546175610000e-02 -3.7038488993147538e-02 -8.3975172149719141e-02  4.2492159699368058e-02 -2.9947446419419051e-02 -7.2969047518635713e-02  4.3663694728560201e-02 -3.3819216062776117e-02 -8.1621669254200641e-02  4.3145587133695679e-02 -3.2609433410379550e-02 -8.5395361828997915e-02  4.3865674898749860e-02 -2.5193952387184408e-02 -7.4456283936982920e-02  4.4793210062034586e-02 -2.9251582765202115e-02 -8.3117470750054809e-02  4.4364251442617797e-02 -2.8147639503808712e-02 -8.6821638659481837e-02  4.5317667454802125e-02 -2.0210192527423225e-02 -7.5948915827509775e-02  4.6114912568141653e-02 -2.4509528947174494e-02 -8.4583162763210290e-02  3.3261739477000431e-02 -6.0022522660070507e-02 -9.5227543536226908e-02  3.0605651510946054e-02 -5.9251061279647507e-02 -9.1560372497035775e-02  3.1639776897511664e-02 -5.8549100805933237e-02 -9.1107723292080486e-02  3.3106649326994635e-02 -6.0097403742848124e-02 -9.1108092665373605e-02  3.2115227306233132e-02 -6.0065799529476355e-02 -9.2054369494069949e-02  3.4676538917521940e-02 -6.1075247406914501e-02 -9.5635998853762116e-02  3.4508515586668655e-02 -6.1254031710144534e-02 -9.0840082467445321e-02  3.3561353025638660e-02 -6.0552613446419636e-02 -9.2217871358590164e-02  3.6031985123306381e-02 -6.1788316152809872e-02 -9.5701000723317234e-02  3.5851110501677108e-02 -6.2111643456284157e-02 -9.0323851926186083e-02  3.4952907158465440e-02 -6.0785066395120706e-02 -9.2081170832932560e-02  3.7341994669904975e-02 -6.2239194766983794e-02 -9.5450511542568409e-02  3.6989411936729208e-02 -6.2606626646528246e-02 -8.9604142141237561e-02  3.6104186921302760e-02 -6.0591404995492391e-02 -9.1717273665630608e-02  3.8382754641889200e-02 -6.2234532627662077e-02 -9.4992247841540908e-02  3.8001598281299516e-02 -6.2206821315353433e-02 -8.8802292864479410e-02  3.7240739196049859e-02 -5.9266766804729323e-02 -9.1293595785100767e-02  3.9420072668311781e-02 -6.1110497893403240e-02 -9.4487051895657509e-02  3.9259096154104819e-02 -6.0436428732837610e-02 -8.8019860707003267e-02  3.8538638451239157e-02 -5.6577426511498469e-02 -9.0869368889744076e-02  4.0649312552676654e-02 -5.8549051153756172e-02 -9.3990592871996764e-02  3.4604026704984608e-02 -5.8775376678698282e-02 -7.3960005955014035e-02  3.4134936548449353e-02 -6.1616968328226066e-02 -6.4039785856303863e-02  3.3416743296476037e-02 -5.9373502510845916e-02 -6.6647851712155495e-02  3.2760228368852076e-02 -6.1312474435013378e-02 -6.5653579845758606e-02  3.3133284144829932e-02 -5.9769157307022612e-02 -7.4982522269024840e-02  2.6272569055616452e-02 -5.6401855344021166e-02 -7.8765047762812526e-02  2.4542166111362916e-02 -5.5635135836424564e-02 -7.7414982283310174e-02  2.6289279453210464e-02 -5.4819812921941727e-02 -7.8578257760775524e-02  2.7944696040392590e-02 -5.4893019475348415e-02 -8.0269249355685995e-02  2.7944122732848038e-02 -5.3859828903380431e-02 -7.9391841250811571e-02  2.9546418666596262e-02 -5.3322074047310215e-02 -8.1386209818452071e-02  2.9647723803859348e-02 -5.2602097931719285e-02 -7.9911274024135712e-02  3.1195275783425749e-02 -5.1451400199572728e-02 -8.2209838465954574e-02  3.1939526318726597e-02 -4.9540649721570788e-02 -6.3159642400058988e-02  3.2848897957307180e-02 -5.2368378267980284e-02 -6.0250665480001103e-02  3.4042256511317925e-02 -5.5063754944742097e-02 -5.7420003913832889e-02  3.5202834943976545e-02 -5.7564832852156793e-02 -5.4726004928504296e-02  3.6332246230365496e-02 -6.0032994631146586e-02 -5.2044892612249427e-02  3.7446297766022700e-02 -6.2601614460485122e-02 -4.9245261231820166e-02  3.8394948718691063e-02 -6.5252727780440001e-02 -4.6284500266324767e-02  4.1743391254247905e-02 -6.2215921783105914e-02 -1.0542948884460501e-01  4.2784054154891442e-02 -6.3820008492945168e-02 -1.0576028875741054e-01  4.3863376176768464e-02 -6.5030408426482569e-02 -1.0575790836900158e-01  4.5004636247286581e-02 -6.5943235602696187e-02 -1.0542540925163314e-01  4.6405991759189351e-02 -6.6424177496458015e-02 -1.0489917669073022e-01  4.7912896636191138e-02 -6.5929630827401137e-02 -1.0431894137433791e-01  4.9272165803621572e-02 -6.3865424738743612e-02 -1.0377379819428498e-01  3.4560147850862602e-02 -6.1086086048960660e-02 -9.7793975865732435e-02  3.1966086036666813e-02 -6.0376921550463522e-02 -9.4157819888907854e-02  3.3432206690468529e-02 -6.0626453765509958e-02 -9.4993358549171028e-02  3.5915884418190311e-02 -6.1617275578919495e-02 -9.8545611803324842e-02  3.4832229748360907e-02 -6.0620694338818795e-02 -9.5442900025237434e-02  3.7230258821550094e-02 -6.1862954679884605e-02 -9.8883032548208238e-02  3.6183822712184288e-02 -6.0401514064293733e-02 -9.5554044743891994e-02  3.8511054548440504e-02 -6.1880960714859330e-02 -9.8865117765444738e-02  3.7258329080266453e-02 -5.9672300887784267e-02 -9.5447188893142673e-02  3.9534135720834356e-02 -6.1369709342682814e-02 -9.8642861853040484e-02  3.8399852976310350e-02 -5.7651531879114939e-02 -9.5259491150082573e-02  4.0632094582784599e-02 -5.9554629832062132e-02 -9.8373158466859706e-02  3.9619695100108376e-02 -5.4355894874429815e-02 -9.5065035859919850e-02  4.1822477973284949e-02 -5.6364895765064808e-02 -9.8101916269954029e-02  3.3314456785272437e-02 -5.2193301242037242e-02 -7.2176522037571356e-02  3.4357546592180509e-02 -5.5251615325720503e-02 -6.9927387897872645e-02  3.5563229432470769e-