<?xml version="1.0"?>
<VTKFile type="UnstructuredGrid"  version="0.1"  >
<UnstructuredGrid>
<Piece  NumberOfPoints="981" NumberOfCells="4230">
<Points>
<DataArray  type="Float64"  NumberOfComponents="3"  format="ascii">3.991541217480066 3.698556371658856 1.338207427536615  4.060714809303454 3.728606006988149 1.41515125202811  4.080048611877761 3.664302473949722 1.281925884378632  4.068574280932948 3.803880642204564 1.388777533080252  3.998485250475829 3.771287279839985 1.302273199381589  4.085126691681688 3.736092660097749 1.244824380231953  4.090196836218716 3.80770264771449 1.207595249243451  4.076379752410499 3.87904807206725 1.362223893017007  4.005390843172163 3.843844935978267 1.266234846768009  4.095265813690426 3.879179223265395 1.170305369885368  4.084173728449354 3.954173149286275 1.335573267985906  4.012278852909829 3.916298426332924 1.230125258313313  4.100348991048904 3.95058672782868 1.132997327357653  4.092002784165613 4.029292952809569 1.308900840828561  4.019171912743835 3.988695077793561 1.193989442292742  4.105460013727268 4.021962323985676 1.095711099570032  4.09990701194763 4.104426596647175 1.282263795677475  4.026086927496404 4.061063344925469 1.157865609609095  4.110600760888282 4.093339944131435 1.058468460267769  4.107922957487274 4.17957420511393 1.255703355068646  4.033069475306254 4.133414894587321 1.121786892770985  4.190893101958958 3.696714739879053 1.365050046211961  4.169529763305832 3.628124615009745 1.220226622475653  4.172520951722637 3.698366950060533 1.180664768001333  4.196800930119218 3.770082972776359 1.335807466422174  4.202670818676204 3.843301296671298 1.306379396143864  4.175527689470416 3.768377143626642 1.14097337892361  4.208541518404242 3.91645779930616 1.276843895840576  4.1785488760881 3.838249765218564 1.101223174002235  4.214446975961749 3.98959523820072 1.247278437066202  4.181589531719256 3.908041434438896 1.061460649187771  4.220416465104409 4.062734897487825 1.217743710522166  4.184656564226708 3.977794606646579 1.021725522928574  4.226480739844852 4.135884431190777 1.188313377416915  4.187717879216183 4.04754450228771 0.9820448504324897  3.179214107900854 3.03617855153557 0.8528137542545382  3.278440755230003 3.169005856729401 0.8615816796601879  3.307547427420377 3.045302268486585 0.8440821367485494  3.300543182469791 3.050541679021938 0.7649890185403561  3.274495043251769 3.183290791309249 0.7815071365073698  3.179087127441906 3.039508770332678 0.7737493498578153  3.293651420504612 3.055648528355261 0.6860146343733233  3.270709358430306 3.197427649178184 0.7014940657473254  3.179068295387259 3.042681275405387 0.694761164634993  3.286826154306355 3.060629903296842 0.6071314051693989  3.266989047819271 3.211445226513176 0.6215611611213063  3.179119934725088 3.045740701091636 0.615849849792793  3.280036412508429 3.065563869736264 0.5283139387549678  3.263255724843749 3.225376329506217 0.541695067250479  3.179210633050573 3.048753534937278 0.5369925316448753  3.273209398172618 3.07049467647006 0.4495526378181295  3.259455795527118 3.239276840710881 0.4618747065386433  3.179265274461393 3.051756441736649 0.458180046726125  3.266273750766088 3.075467507039201 0.3708576807786728  3.255515279679896 3.253211069252856 0.3820969109535029  3.931412379326278 3.577081442199834 1.129995577669352  3.966455845632824 3.648367204503438 1.232128213160263  4.054502654668797 3.592713683634576 1.157694394965241  4.05742208541257 3.660772380766883 1.111844130110373  3.971893192211119 3.719049608669608 1.189940469883077  3.934875404591823 3.643267991264837 1.079766260815741  4.060382816045188 3.728578408963903 1.065946502349653  3.977325330580149 3.78953416868051 1.147688442168531  3.938375014839333 3.709230423925003 1.029526123411727  4.063362408433351 3.796216509048264 1.020033998130984  3.982754745937776 3.859892640190606 1.105408098682956  3.941884822456843 3.775027366646086 0.9793021135572931  4.066345602210845 3.863747834220761 0.974130170672052  3.988185798351529 3.930169540811651 1.063126334183889  3.945386218938568 3.840716094466235 0.9290998177645479  4.069317617527465 3.931213373514891 0.9282502549365373  3.993622789497401 4.000402773556885 1.020863538509163  3.948860932595968 3.906331897206754 0.8789243917472892  4.072278385642289 3.998663017951587 0.8824048374789772  3.999082999559012 4.070619609823418 0.9786474328484638  3.952302194647454 3.971891868749494 0.8287874394634251  3.511517512117915 3.322787742548778 0.8999018652337446  3.588560958859979 3.42594012214533 0.9650718213152492  3.646918929858691 3.33001940675391 0.9004691850861948  3.647040596742558 3.368426197089497 0.8258154306616122  3.590181783458994 3.475062424138547 0.8964795986506564  3.510398687848614 3.359176286199274 0.8243143809239407  3.509448877178209 3.395402847067939 0.7487838395477394  3.591953688158991 3.523993605002844 0.8279674512333594  3.647322881677399 3.406628153438631 0.7512835989696642  3.647647647309975 3.44468633057993 0.6768185146595115  3.593762929102924 3.572790224754173 0.7595279994241251  3.508556777366187 3.431495288797144 0.6733501999861553  3.595542509637744 3.621489012764939 0.6911396453792104  3.507631233729533 3.467491076198367 0.5979684371340185  3.647942731551888 3.482620944566297 0.6024364831313659  3.597230214744755 3.670117706393692 0.6227957372601054  3.506602754394577 3.503424110372953 0.5226341338548032  3.648138196172595 3.520472902351038 0.5281130505875464  3.598768046097824 3.71869386395531 0.5544811658464326  3.505399101686442 3.539334628729083 0.4473313983107071  3.64817914804955 3.55828150023294 0.4538532727949677  3.613978903694048 2.952514415113171 0.8195264997886784  3.580121626854475 3.109349398107173 0.8299207321424331  3.722150852668974 3.025328029388652 0.8162656323410604  3.576430238206139 3.121687512580356 0.7496587120343093  3.608735911520156 2.950784156008273 0.7411754984154317  3.717385575816528 3.03136733852616 0.7367612734449445  3.572844608242656 3.133906647667594 0.6695459627596004  3.603556461224597 2.948964491425909 0.6629820687923857  3.712692393589652 3.037321700532373 0.6574393264470378  3.569311355322124 3.145991750525289 0.5895679050565785  3.598430185743037 2.947072952789833 0.5849426390389307  3.708039097034201 3.043178682832513 0.5782840791996033  3.565781366058651 3.157988010062097 0.5096839848255219  3.593355946758626 2.945154902100816 0.5070015828052367  3.703425520406717 3.048977531395446 0.4992388214497565  3.56221233223808 3.169974956585922 0.42987521418371  3.588253779036063 2.943225550054813 0.4291584439513304  3.698801969886401 3.054751946766937 0.4202857295767784  3.558491611000645 3.181967588205337 0.3501269559309986  3.583031582718157 2.941315641147 0.3514128589479311  3.694048339761023 3.060522073309135 0.3414431730927923  3.389219650933562 2.840140625727656 0.7704321027653407  3.28890557653737 2.922728585236655 0.7634755105724147  3.266628202651244 2.780628283820695 0.7930836143832095  3.293692565451235 2.927590962353801 0.8407610859497247  3.394720682955727 2.851849901291966 0.845489989719323  3.263178035791628 2.766137958132169 0.7201199448634495  3.383787030343434 2.828349520669732 0.6955020927347897  3.284189957437077 2.917743274285037 0.6863135649017182  3.259810764544264 2.751604375995139 0.6472648908544701  3.378443856868513 2.81651810152222 0.620690455555829  3.279570601316932 2.912693875381575 0.6092447459975742  3.367785810226914 2.792809385673467 0.4713548646789337  3.270360086352559 2.902524416843733 0.4553354209072567  3.253091844800758 2.722485899009148 0.5018069728421301  3.274988213606887 2.907607260378443 0.5322508341587235  3.373132317252573 2.804660699198003 0.5459766548915991  3.249608569750634 2.707970883277991 0.429191071272443  3.36236361476128 2.781007660342954 0.3968116202714431  3.265626875234735 2.897494909683828 0.3785044980129631  3.692477864614612 3.618227034307833 1.15938709504195  3.830496660259865 3.630525602130526 1.190727329277817  3.791202834654334 3.545393849999184 1.079275782092797  3.794945857606941 3.607547525234301 1.022623476334862  3.836124684937444 3.69914451340782 1.143247697548408  3.69914801365655 3.684524647212672 1.107904095818776  3.798745583471922 3.669483412717658 0.9659907226962552  3.841772607943631 3.767556490987258 1.095763523028808  3.705845320659209 3.750631011442995 1.056423121561937  3.802544811375585 3.731264581136482 0.9094139283895938  3.847411744600024 3.835832646551498 1.048285434563335  3.712524441506969 3.816604228116699 1.004982232804214  3.806320730417269 3.792938061390375 0.8528735990905361  3.853038578404292 3.904015565911011 1.000817785367405  3.719182439393344 3.882485428565706 0.9535631061284778  3.810049069139841 3.854537927992062 0.7963613739180102  3.858647282501265 3.972137301583453 0.9533636549129701  3.725808486819928 3.948301218014351 0.9021547405299291  3.81370790530106 3.916087262142919 0.7398583325655452  3.864222336607093 4.040233055435963 0.9059313819757229  3.732383134400222 4.014074537921222 0.8507567345323257  3.739834660808588 3.690161040573626 1.268867674987203  3.748488310007684 3.761473443459082 1.225959936328856  3.757106998644006 3.832617976191251 1.183030744711913  3.765696714849381 3.903645583811699 1.140100862940664  3.774271179934011 3.974596110559133 1.097176030359337  3.782841877116125 4.045500654368438 1.054263045430152  3.791416149370916 4.116384806366124 1.011366646359243  2.971606608172654 3.554445968760059 0.9878310484940392  3.133624974694714 3.504196640444869 0.9874722643599971  3.041716989624162 3.415356625286794 0.9269781216320283  3.051321482280003 3.452039682231114 0.8512180670226044  3.142209644731321 3.548655617201431 0.9153294571120886  2.982135395871843 3.604886913563755 0.9188033259714944  3.061008412196625 3.488620567824655 0.7755042336797274  3.150885404951747 3.593009600126321 0.8432379467709175  2.992697125577122 3.655272902502797 0.8498196470283206  3.070713134025941 3.525136648651499 0.6998309763752362  3.15956450053562 3.637290019680254 0.7711993518778295  3.003247076912602 3.705620964657691
[...]
<PointData  Vectors="f_16"> 
<DataArray  type="Float64"  Name="f_16"  NumberOfComponents="3" format="ascii">2.0489115102214631e-02 8.2082408118288909e-03 3.4776723448695861e-02  1.9872806729170987e-02 1.7082779652516769e-02 3.7005280854428738e-02  1.9565465400909008e-02 3.4696942587987569e-03 3.4931653213146507e-02  1.9078034156738696e-02 1.2448812891006668e-02 3.1958139918750968e-02  1.9894933953275507e-02 3.0212636020379019e-03 3.1141691662560436e-02  1.9160851261534984e-02 -1.5895313787979112e-03 3.2016367244860143e-02  1.8815149252502186e-02 -5.5257869647995280e-03 2.8903919932126813e-02  1.8400992330174566e-02 8.8324590695251608e-03 2.6894462247872918e-02  1.9405263442379077e-02 -1.0431589770799068e-03 2.7392957967133560e-02  1.8543608450269426e-02 -8.5765762140976066e-03 2.5514494320828630e-02  1.7816969252090746e-02 5.9916295858337002e-03 2.1699517662506704e-02  1.9020129587476373e-02 -4.2322114059264553e-03 2.3434019557573679e-02  1.8324500838590625e-02 -1.0952546132632088e-02 2.1717471531437327e-02  1.7332668964216619e-02 3.7262316977673140e-03 1.6199155798865904e-02  1.8723240451839759e-02 -6.7578614048504999e-03 1.9143112361122653e-02  1.8000728452774794e-02 -1.2880623498136628e-02 1.7234957542772166e-02  1.6766846037395238e-02 1.8248220672600539e-03 1.0150620080578591e-02  1.8367272781706211e-02 -8.8443401042377998e-03 1.4246107401840975e-02  1.7732705388378612e-02 -1.4629136300085097e-02 1.1874907723918079e-02  1.6140519459844641e-02 1.1745289970324605e-04 3.4373112886791450e-03  1.8049007625815162e-02 -1.0716086668247462e-02 8.5773899637892163e-03  1.8577560061954886e-02 1.3340388335917254e-02 3.8211349800049518e-02  1.8741671865208188e-02 -1.6445831909459362e-03 3.4860054343698321e-02  1.8535136421014686e-02 -6.6023641641469039e-03 3.2740346958468863e-02  1.7952270446895392e-02 8.3985643341014989e-03 3.3647351707844324e-02  1.7398443227074914e-02 4.5592622410643054e-03 2.9057827553213920e-02  1.8340480523614974e-02 -1.0367448734063246e-02 3.0370863867155415e-02  1.6950345417697101e-02 1.5380894019163221e-03 2.4324039828916844e-02  1.8207591218064353e-02 -1.3224628442112994e-02 2.7664034539110899e-02  1.6578434365202829e-02 -8.6394787214761010e-04 1.9285002686745979e-02  1.8025080152541933e-02 -1.5439053301447656e-02 2.4464511347161846e-02  1.6064301196139788e-02 -2.8672526129578870e-03 1.3646235072190548e-02  1.7717162033844134e-02 -1.7208206625811160e-02 2.0577027398497490e-02  1.5600469585962191e-02 -4.7630392855418585e-03 7.2454048707517715e-03  1.7521275917159101e-02 -1.8756915862167187e-02 1.5737338144168517e-02  3.4838923833106591e-02 -3.6399823988556276e-02 -2.8574503810189094e-02  3.2735440549038132e-02 -3.4394780620127074e-02 -1.5210079894187279e-02  3.3111220136286978e-02 -3.5619663915797038e-02 -2.4919996331216408e-02  3.5137177730557342e-02 -3.1617550316482015e-02 -2.4493548055863443e-02  3.4429166552409636e-02 -3.1614299066697674e-02 -1.4103450116869446e-02  3.6431865797302780e-02 -3.2517505187377470e-02 -2.8144348848774741e-02  3.7030096224102513e-02 -2.6631592925019508e-02 -2.4142347483658656e-02  3.6255100326476199e-02 -2.6732258565657568e-02 -1.3062873779254044e-02  3.8207708519286523e-02 -2.7526326922358003e-02 -2.7732339802033920e-02  3.8722307826517470e-02 -2.1540714003477717e-02 -2.3838792879067868e-02  3.7719814305251023e-02 -2.1848521625835265e-02 -1.2095023725945238e-02  3.9796414529353036e-02 -2.2361860551599048e-02 -2.7384476160809582e-02  4.0299136968074925e-02 -1.6232481414579850e-02 -2.3624582844466616e-02  3.9146195370012959e-02 -1.6800747581009273e-02 -1.1305273538899468e-02  4.1290892457194875e-02 -1.6977370190944651e-02 -2.7119672326384819e-02  4.1835065084663579e-02 -1.0663569901968957e-02 -2.3505996427172080e-02  4.0622701088569642e-02 -1.1507798197440857e-02 -1.0723114512815542e-02  4.2763331890428746e-02 -1.1321486432464764e-02 -2.6930383786907652e-02  4.3331796591120041e-02 -4.8038087405402174e-03 -2.3497033376079741e-02  4.2100612895171100e-02 -5.7960347775870055e-03 -1.0316488091377543e-02  2.1007550723917759e-02 -1.2047324928231691e-02 2.8007553376487013e-02  2.0640912606763477e-02 -2.5865003492030790e-03 3.1884167040266115e-02  1.9832854996047724e-02 -8.5242621081530259e-03 3.1113100903661164e-02  1.9797700607089717e-02 -1.3146842447585053e-02 3.0427457300473484e-02  2.0337762127293563e-02 -7.5141701845277790e-03 3.0104008694555047e-02  2.1052141043655992e-02 -1.6375528819655510e-02 2.8121826636565917e-02  1.9742791431953309e-02 -1.6624959650730773e-02 2.9322318363286064e-02  2.0113719824056714e-02 -1.1241111026069110e-02 2.7957626568507896e-02  2.1075802115838406e-02 -1.9606387975303383e-02 2.7706508310964439e-02  1.9695865328212551e-02 -1.9172634558831364e-02 2.7763148160144017e-02  1.9947764709678004e-02 -1.4077642594423991e-02 2.5410747534151849e-02  2.1058191154622461e-02 -2.1946586056934402e-02 2.6850241582196836e-02  1.9644767614590174e-02 -2.1009916534246661e-02 2.5684049284344462e-02  1.9817437732482616e-02 -1.6246663337421197e-02 2.2387428414312047e-02  2.1171437641863224e-02 -2.3404453700984457e-02 2.5448516857703017e-02  1.9648977383157219e-02 -2.2177066615559800e-02 2.2929088763295660e-02  1.9613176738602616e-02 -1.7950257794555041e-02 1.8677565983413285e-02  2.1523990156935360e-02 -2.4032337939635828e-02 2.3367256056620104e-02  1.9897851329985148e-02 -2.2771150709841922e-02 1.9277497561610915e-02  1.9590818685069296e-02 -1.9266758425869016e-02 1.4104795715822772e-02  2.2056395782828191e-02 -2.3977439260492079e-02 2.0498418723713285e-02  2.8482382271502644e-02 -3.1062157594381558e-02 2.5513564146279091e-03  2.6444145657002285e-02 -2.7134467704772236e-02 1.1877139026085795e-02  2.6864993964338696e-02 -3.0025870086046604e-02 6.0943630004911776e-03  2.7506664732132997e-02 -3.0306339001496711e-02 8.6048876014868953e-03  2.6434731946277937e-02 -2.9079934948267671e-02 1.4426082644786210e-02  2.9360654299752223e-02 -3.0875506245413353e-02 4.9886789232943696e-03  3.1296904085262311e-02 -2.7810645428705375e-02 7.3141806297553711e-03  2.7297747981327353e-02 -2.8963029951756043e-02 1.6803866831831417e-02  2.9409404952081396e-02 -2.7655405414353369e-02 1.1032537187027291e-02  3.0706269073327436e-02 -2.4194194690430746e-02 1.2869659273954120e-02  2.8765129903300206e-02 -2.7008683638546648e-02 1.8714846007022851e-02  3.2531379299532717e-02 -2.4129938464621359e-02 9.1993737330294985e-03  2.9832371640936876e-02 -2.4714103192025945e-02 1.9813417679356050e-02  3.3729375709505661e-02 -2.0412326345018498e-02 1.0581228972524470e-02  3.1875874861375310e-02 -2.0724836258862740e-02 1.4136130131501324e-02  3.0886985771969942e-02 -2.2160726928164377e-02 2.0305718396334764e-02  3.4966676442101913e-02 -1.6436925940654754e-02 1.1538268790937209e-02  3.3086605811198370e-02 -1.6944844864508368e-02 1.4995602388549569e-02  3.1967845539406667e-02 -1.9077234824359020e-02 2.0397156398365885e-02  3.6218072655888632e-02 -1.1924836343374370e-02 1.2298337046226494e-02  3.4409200789922087e-02 -1.2678979606410165e-02 1.5713402258070955e-02  3.0101451036187981e-02 -3.4904416916441645e-02 -2.5475451297448277e-02  2.9800902084391397e-02 -3.3238375638306790e-02 -1.3338383774896398e-02  2.8535965700398801e-02 -3.3447771074431788e-02 -1.7058480074294557e-02  3.1807143749157218e-02 -2.9804865953628624e-02 -1.2381500019618855e-02  3.2416679860417859e-02 -3.0427286111162702e-02 -2.5551546840001712e-02  3.0966771716428976e-02 -2.9402736109706774e-02 -1.6530980630129592e-02  3.3750044297946334e-02 -2.4806551568646789e-02 -1.1452885154384161e-02  3.4368464042401264e-02 -2.5561947150024144e-02 -2.5689612609564462e-02  3.2859163474660447e-02 -2.4516864144702066e-02 -1.6078523996573835e-02  3.5336893086375415e-02 -1.9857788689640155e-02 -1.0705291680993429e-02  3.6174546379782971e-02 -2.0522675371665314e-02 -2.5880695182486754e-02  3.4573444337425145e-02 -1.9535352106641576e-02 -1.5743647481888383e-02  3.6836790487779290e-02 -1.4779261062425572e-02 -1.0138085253969392e-02  3.7877329415725310e-02 -1.5284187649271429e-02 -2.6153673282130051e-02  3.6174875580784284e-02 -1.4399490480648130e-02 -1.5531936521707021e-02  3.8359438890683342e-02 -9.4433843555270860e-03 -9.7273422299205044e-03  3.9536955809490862e-02 -9.8068267208547815e-03 -2.6505255282916706e-02  3.7759653507969101e-02 -9.0403639939687086e-03 -1.5432860972384865e-02  3.9933307653343124e-02 -3.7346179653212383e-03 -9.3983968660937538e-03  4.1202403421718999e-02 -4.0324244794626143e-03 -2.6924578266857173e-02  3.9386837123096347e-02 -3.3593263874149618e-03 -1.5431954817413267e-02  3.4864490069907036e-02 -3.3466675707296674e-02 -3.9532599366173621e-02  3.5935182890577816e-02 -3.2480542875866131e-02 -3.5221589129765273e-02  3.6138996732411353e-02 -3.5729364803003184e-02 -4.7114607649145587e-02  3.3781998241533780e-02 -3.7170893312100231e-02 -3.4912712432534548e-02  3.2565764292163152e-02 -3.8288431740112865e-02 -3.8726929154628276e-02  3.7886127478556908e-02 -3.1210752818043030e-02 -4.8144318806203644e-02  3.6703217857462660e-02 -2.8855389329949976e-02 -4.0427496655474661e-02  3.7774340812943154e-02 -2.7658609465891850e-02 -3.5563408661058449e-02  3.9579935125021254e-02 -2.6350326554584629e-02 -4.9196007730448986e-02  3.8492722872838156e-02 -2.3888497181000053e-02 -4.1330031875398895e-02  3.9487101927223503e-02 -2.2535264647813240e-02 -3.5945961377233882e-02  4.1806826084998701e-02 -1.3292625804357434e-02 -4.3264919385787248e-02  4.2709279196616122e-02 -1.1549163469867238e-02 -3.6873822470502672e-02  4.2748736680079669e-02 -1.5929801955576452e-02 -5.1344660998878605e-02  4.1122053393209915e-02 -1.7173858481519279e-02 -3.6381816928835353e-02  4.0179829103252900e-02 -1.8716006760663685e-02 -4.2275260531394160e-02  4.4309392314788733e-02 -1.0365418931156898e-02 -5.2482382124312194e-02  4.3400154625759406e-02 -7.6130988156558549e-03 -4.4291290161498305e-02  4.4277138514212992e-02 -5.6516691273103626e-03 -3.7425699226503795e-02  2.3530253471130521e-02 -1.1551877953468570e-02 2.5318673384761937e-02  2.2005860097144045e-02 -7.6233397892737035e-03 2.8574040675766743e-02  2.2532431736429770e-02 -1.7457925395760254e-02 2.3386210254645632e-02  2.2629573298132560e-02 -2.1156288456154516e-02 2.4626798756374510e-02  2.1826054348647816e-02 -1.2276922092225853e-02 2.7807613994030620e-02  2.3396485237583035e-02 -1.5847924417795055e-02 2.5390627833734289e-02  2.2732194076161533e-02 -2.3801519772664759e-02 2.5240540856095280e-02  2.1725379971176843e-02 -1.5757919946887418e-02 2.6595452680956842e-02  2.3326375312710899e-02 -1.9031043398405560e-02 2.4965277383139157e-02  2.2971516884105748e-02 -2.5382802591617439e-02 2.5408508465189130e-02  2.1665261598735309e-02 -1.8373902604273941e-02 2.4961982183354003e-02  2.3333367065431071e-02 -2.1307231246676241e-02 2.4041901641033561e-02  2.3594498314918277e-02 -2.5779554010448485e-02 2.5008227865952335e-02  2.1596290094261058e-02 -2.0324009036135075e-02 2.2791425923194757e-02  2.3476020016582680e-02 -2.2785494137071764e-02 2.2602781818691395e-02  2.4417588129911030e-02 -2.5350733377142436e-02 2.3874029489496251e-02  2.1695116733919238e-02 -2.1558202406023817e-02 1.9981213439405118e-02  2.3844151784417737e-02 -2.3532312757919227e-02 2.0503183568466837e-02  2.5227549731643397e-02 -2.4425261871461792e-02 2.2037477303797716e-02  2.1960965203708445e-02 -2.2243652038006188e-02 1.6319925944926775e-02  2.4380486706136007e-02 -2.3698514660351330e-02 1.7598012990760931e-02  2.3033501217202077e-02 -1.2601563421776403e-03 2.9419059335117563e-02  2.2565507042698611e-02 -6.1212242157942954e-03 2.7485731958612057e-02  2.2222157978850198e-02 -9.8548928882520540e-03 2.5224273863842510e-02  2.1982854874258898e-02 -1.2705050751724111e-02 2.2581175601289590e-02  2.1870563202007230e-02 -1.4868089683843257e-02 1.9466210636697352e-02  2.1767680325842319e-02 -1.6557482970005640e-02 1.5696166479515803e-02  2.1713731295058308e-02 -1.7919279957530985e-02 1.1176715731887584e-02  3.4566150430694040e-02 -2.7455794917899099e-02 8.2032704927143211e-03  3.2280088275765804e-02 -2.7690287346321538e-02 7.7168046889532112e-03  3.4469811437875815e-02 -3.1325359183754342e-02 -3.2400686556082842e-04  3.4798486995436965e-02 -3.1671943881197338e-02 2.1374786408067050e-03  3.2448064867203849e-02 -2.9578706365029638e-02 1.0095075931671400e-02  3.4701269031423107e-02 -2.9237597717171923e-02 1.0753990798602229e-02  3.5449086967353827e-02 -2.9499774704029785e-02 4.6922328697117455e-03  3.2876437815172022e-02 -2.9563226818212031e-02 1.2329206530627948e-02  3.4846574232163786e-02 -2.9270010778868948e-02 1.2975167374822244e-02  3.6419681341207953e-02 -2.5727054089960098e-02 6.9240457972852840e-03  3.3666994828194421e-02 -2.7664627222848747e-02 1.4286454492485603e-02  3.5296317016639218e-02 -2.7711187234902086e-02 1.4746006754723156e-02  3.7449004720877109e-02 -2.2151895322131816e-02 8.5085987992008765e-03  3.4556502424099765e-02 -2.5204643546787881e-02 1.5477539983444366e-02  3.6018727337732370e-02 -2.5607809521909823e-02 1.5686006519641176e-02  3.8592427018820590e-02 -1.8409614834770868e-02 9.6082230144073095e-03  3.5580405572841832e-02 -2.2543945519085420e-02 1.6033377550110618e-02  3.6882600884838870e-02 -2.3265109930004475e-02 1.5982655822413504e-02  3.9950688727843783e-02 -1.4155870290706866e-02 1.0352077901626644e-02  3.6798739376560467e-02 -1.9487190014642979e-02 1.6054088332045441e-02  3.0592658411468465e-02 9.8112188889787587e-03 2.5792598163571823e-02  2.8741218257726228e-02 1.9668045126774773e-02 2.8164889545174224e-02  2.9247647142779037e-02 4.8485809605447868e-03 2.5580489884319765e-02  2.8637385611714274e-02 2.8135439316278601e-04 2.2538438103931014e-02  2.7911249992508234e-02 1.5519264430837352e-02 2.2998504957886995e-02  3.0028137115906357e-02 5.3327163351310795e-03 2.1842173648901935e-02  2.8140454565556063e-02 -3.2671410604646783e-03 1.9318786968809537e-02  2.5887369288590738e-02 2.6463379626506835e-02 3.1915369626085578e-02  2.5598046618735302e-02 3.8906506011753876e-02 3.3910608586760475e-02  2.4659295288393182e-02 3.2897088657886667e-02 3.4104709208877759e-02  2.3448312601588323e-02 2.9367959553880389e-02 2.7430971211746050e-02  2.4350983330022058e-02 3.5979495056187923e-02 2.6932101897369852e-02  2.4780452409416877e-02 2.2526763671061226e-02 2.5980537105081976e-02  2.2373090297248523e-02 2.6632481928008149e-02 2.1113724307251842e-02  2.3220606141791906e-02 3.3683629892926996e-02 2.0324916046334480e-02  2.3816917250871122e-02 1.9466714369881243e-02 2.0287950444289566e-02  2.1414993981879585e-02 2.4467199268176844e-02 1.4826373059143739e-02  2.2185960904937099e-02 3.1845816897442647e-02 1.3789819355122232e-02  2.2966280924070791e-02 1.7041625253541942e-02 1.4565730609499198e-02  2.0548884032796914e-02 2.2712566401590004e-02 8.3507748578918843e-03  2.1228565315650458e-02 3.0347509490496014e-02 7.1021492665697223e-03  2.2210905233895684e-02 1.5066700619943424e-02 8.6288855691807002e-03  1.9759473855065456e-02 2.1267045412877952e-02 1.5258416232228776e-03  2.0347601348806414e-02 2.9105349696681274e-02 9.3183050750692052e-05  2.1545523747116758e-02 1.3415216390131714e-02 2.3420186483851715e-03  1.9010545085255705e-02 2.0048827381488679e-02 -5.7745384451926623e-03  1.9560729891660630e-02 2.8066090158348225e-02 -7.3627339561811722e-03  2.0944557947251641e-02 1.2018947481604517e-02 -4.4185836542249409e-03  3.4835097529704338e-02 -3.4785631967786876e-02 -1.8123675921576817e-02  3.5996292977714110e-02 -3.1857364563700322e-02 -1.6933055723244560e-02  3.7609958185976802e-02 -2.6937840948935241e-02 -1.5717772414669436e-02  3.9023210436198767e-02 -2.1876077341442594e-02 -1.4617369663633251e-02  4.0362902997001793e-02 -1.6690385629925392e-02 -1.3708134761516154e-02  4.1775976595643152e-02 -1.1255742456741982e-02 -1.3002830467546952e-02  1.8034658462788750e-02 -1.8211995004464715e-02 3.0242510384615815e-02  1.7184620850131681e-02 -1.0463208809679774e-02 3.4800842832856144e-02  1.6662035942054829e-02 -1.4179898642454532e-02 3.4095016557400375e-02  1.7187496627337553e-02 -1.4827131303578451e-02 3.4498465631645082e-02  1.8338971893208371e-02 -2.1794889334628330e-02 3.1638449809826746e-02  1.6877552902180921e-02 -1.8247376870692143e-02 3.4751335683508564e-02  1.6966358241692795e-02 -2.1057873533171727e-02 3.4890432357268852e-02  1.7194326254676488e-02 -1.8048673467731612e-02 3.3712263025264783e-02  1.8481521109126511e-02 -2.4147154937346951e-02 3.2508534788317202e-02  1.6906079447536675e-02 -2.2754743618139152e-02 3.4562421828874583e-02  1.7121060332635048e-02 -2.0317910221985022e-02 3.2490818182602021e-02  1.8649336949892157e-02 -2.5015200569556577e-02 3.2824571592397774e-02  1.7006989500072508e-02 -2.3516319325372181e-02 3.3563933335647549e-02  1.7037539834268763e-02 -2.1749505332348356e-02 3.0681864823929400e-02  1.9067199429284434e-02 -2.4906276594405936e-02 3.2363009329289490e-02  1.7278534662714382e-02 -2.3599297711512573e-02 3.1840565151894637e-02  1.7110097232788727e-02 -2.2512529803224414e-02 2.8163821873451560e-02  1.9673501251183879e-02 -2.4120837784648633e-02 3.1263553134826573e-02  1.7734731554018821e-02 -2.3005602437350631e-02 2.9379923203578375e-02  1.7357127375866088e-02 -2.2767037620256992e-02 2.4744116961763311e-02  2.0346434234444710e-02 -2.2750985418826315e-02 2.9631061412066985e-02  3.2472684668752957e-02 -3.2747984799839661e-02 -5.5432189961342115e-03  3.3328258367924447e-02 -3.1934065399835281e-02 -3.7063809536824616e-03  3.5001020536854978e-02 -2.8111813372936105e-02 -1.7479527308797878e-03  3.6244513316552422e-02 -2.3637086636737629e-02 -5.3092172331740376e-05  3.7510373248472589e-02 -1.9236724560438966e-02 1.2438275990941444e-03  3.8839028892416971e-02 -1.4598319126332001e-02 2.2060704027867892e-03  4.0307643235889028e-02 -9.4438862703029695e-03 2.9251731159211417e-03  3.0568104836119627e-02 -3.0785529218899627e-02 2.1414527494008073e-03  2.8145570080480839e-02 -2.8337682497038150e-02 8.8643560882182178e-03  2.8314287674606715e-02 -2.9903631898346397e-02 1.1374937906702978e-02  3.0997724440150407e-02 -3.1316126796136698e-02 4.5995175883861913e-03  2.9353041967237745e-02 -2.9232041959674413e-02 1.3814154685043220e-02  3.2395608100075003e-02 -2.9064305352717316e-02 7.1219344930609470e-03  3.0696226888337980e-02 -2.6890743418572657e-02 1.5836314762588909e-02  3.3644419771445978e-02 -2.5524631040110091e-02 9.3094040253301896e-03  3.1756029782232909e-02 -2.4281410156315339e-02 1.7131770530867965e-02  3.4749130881851345e-02 -2.2078024419397577e-02 1.0837589273135792e-02  3.2837730364924149e-02 -2.1453530659279994e-02 1.7812131868637993e-02  3.5916106568873458e-02 -1.8416638870156446e-02 1.1871305405563774e-02  3.3925757733399974e-02 -1.8096429928341554e-02 1.8058006750499286e-02  3.7160195541137198e-02 -1.4204148913865539e-02 1.2571208646183527e-02  2.1524209629212390e-02 -1.9518080461246545e-02 2.3620891824938352e-02  2.0131045615020632e-02 -1.6254633347632878e-02 2.7178425875911457e-02  2.1227678955910455e-02 -2.2952069309785061e-02 2.1721120229898843e-02  2.1442585754749503e-02 -2.5651581784138559e-02 2.3915326821826503e-02  2.0423670487160931e-02 -2.0103170892252019e-02 2.8122190700183684e-02  2.1656438805533963e-02 -2.3006341399982318e-02 2.5157275007775596e-02  2.1850941652025856e-02 -2.5391998843539675e-02 2.6129073583723003e-02  2.0478399754269974e-02 -2.2939499780325324e-02 2.8493807893754414e-02  2.2047074174692198e-02 -2.7059863206858742e-02 2.5689875622048195e-02  2.2464851744771610e-02 -2.6291386465305360e-02 2.6706001984554154e-02  2.0717284359274252e-02 -2.4598866749639684e-02 2.8377517905185601e-02  2.2937815854020084e-02 -2.6698343051490651e-02 2.6912755903577175e-02  2.3302452405906011e-02 -2.6018877149542961e-02 2.6583676842963172e-02  2.1172597163687565e-02 -2.5221219300237831e-02 2.7654682975370968e-02  2.3906903601112181e-02 -2.5493387745121214e-02 2.7370893085173455e-02  2.4154678759021372e-02 -2.5099756069079302e-02 2.5791711779400144e-02  2.1770822465961331e-02 -2.5040083722097119e-02 2.6208620699786765e-02  2.4792561899991815e-02 -2.3849757503113776e-02 2.7193599044265309e-02  2.4968899267583756e-02 -2.3703432833100179e-02 2.4