<?xml version="1.0"?>
<VTKFile type="UnstructuredGrid"  version="0.1"  >
<UnstructuredGrid>
<Piece  NumberOfPoints="955" NumberOfCells="4075">
<Points>
<DataArray  type="Float64"  NumberOfComponents="3"  format="ascii">5.83349320170168 2.396159728010131 4.232392342208047  5.991660867185877 2.365521959297128 4.230851136380902  5.954891390459629 2.511707350870121 4.259667658048257  5.95020889244117 2.501020180564715 4.342121305910991  5.98777254567937 2.342692910521508 4.309751047119654  5.831423365676634 2.377399662591351 4.312785350847534  5.945453596487776 2.490351016458935 4.424467096895794  5.98379693808737 2.31988494324799 4.388564596982912  5.829284845680042 2.358661909129329 4.393067542272558  5.940654760372648 2.479658978804046 4.506715615773973  5.979771038716313 2.297078588953686 4.467313158877489  5.827104997729361 2.339917856308037 4.473258726213913  5.935856781069462 2.468938066314953 4.588895952171259  5.97572777316647 2.274266234873029 4.546012510023073  5.824901982272516 2.321168300894866 4.553383073712863  5.822727596870475 2.302390599700626 4.633447796062099  5.971735443623333 2.251424767141494 4.624662560838557  5.9310951690378 2.45818960494154 4.671001083677912  5.820677696819946 2.283563739265053 4.713433169059269  5.967885816561587 2.228539138217999 4.703251852502311  5.926455940329285 2.447378319462262 4.753046056452628  5.46416211743795 2.745381363019189 4.248333246495232  5.445185818525446 2.583683449095705 4.262065620326183  5.577223024224714 2.615426168780923 4.261161341783235  5.577223809725 2.618916380294633 4.346028667088579  5.444124763210901 2.584099983043564 4.346994615351176  5.462190897623173 2.760343159600615 4.332259774689946  5.460129636970285 2.775265876016151 4.416009361948674  5.44299127908713 2.584521435166526 4.431728621824349  5.577131977078432 2.622407515446983 4.430702311519294  5.458015081390811 2.790116899844765 4.499594853850535  5.4418149906305 2.584902252258735 4.516302721522528  5.576997338517426 2.625859480615969 4.515223540682702  5.455892326288686 2.804895899880462 4.583061817719599  5.440645391814512 2.58523960664923 4.600761864375573  5.576860311569167 2.629265198859982 4.599637843110506  5.576750469346861 2.632640727124401 4.683985206098123  5.439505318622793 2.585547272194503 4.685148156962217  5.453814326464903 2.819622866524005 4.666420285521215  5.576727473489903 2.635957368153128 4.768284752294345  5.438472957667394 2.585788881219743 4.769475529212078  5.451847215506798 2.834269349409657 4.749712374908502  5.722378872659964 3.107795652805364 4.106444899948475  5.79863982263941 2.995814232970353 4.174099350559306  5.864477846385126 3.091669308878448 4.124389254420058  5.857452559412446 3.134562565499746 4.193546930469217  5.794089874372198 3.031431271766081 4.248907441377297  5.718316926310928 3.152131876651065 4.175430051637233  5.850369896715634 3.177297737156629 4.262683067138116  5.789463603701276 3.066916736777118 4.323616321506011  5.714154534770128 3.196324600191301 4.244369525528274  5.784810001277607 3.102312817635271 4.398252117884756  5.709950005455414 3.24042748793696 4.313258840229275  5.843278042273117 3.219943048813693 4.331771197347582  5.780164210863624 3.137642461150788 4.472824045192824  5.705752756214348 3.284468823216232 4.382092547677  5.836209247638073 3.262538703785988 4.400818366540554  5.775551338314112 3.172922798109854 4.547342862225836  5.701609121216259 3.328467649620052 4.450874355320111  5.829186042343308 3.305104045179952 4.469825742858045  5.77105017200531 3.208150564234728 4.621837549266336  5.69760283085914 3.372421925122579 4.519615174664668  5.822233444202873 3.347651527126781 4.538801133714149  5.825187553386252 2.552362819084582 4.257907061583317  5.823184948766894 2.544374081424752 4.341121959322006  5.821111664225429 2.536414067278554 4.424206755623763  5.818995236746785 2.52842540989354 4.507175252837729  5.816872427849069 2.520398412394227 4.590058127324859  5.814780301186731 2.512333412495304 4.672874071676715  5.812796979067272 2.50421174970361 4.755630374514303  6.086413867481157 2.475006359132313 4.262562629751941  6.071159121211311 2.630892428887544 4.275890171627796  6.06394523144863 2.629643535578632 4.3593267192186  6.079115303729758 2.461112815617712 4.344238955325006  6.071723968094903 2.447236284111971 4.425801725923394  6.056657892166863 2.628391093224914 4.442645127572537  6.064301538298793 2.433349350443791 4.507290017156398  6.049344018286934 2.627106383674715 4.525874489581054  6.056880161494929 2.41944483432572 4.588719629066274  6.04204332928298 2.62578276477809 4.60903396427379  6.034792259111541 2.624413199967669 4.692142971786143  6.049500061736882 2.405511368483915 4.670106936546579  6.042255515237629 2.391507839689495 4.75145997050797  6.027636551227362 2.622986894991021 4.775202665286877  5.705732092058337 2.462307038271123 4.243201985603465  5.705386299590306 2.321131017899588 4.213306549081275  5.708189498396572 2.296874512775601 4.291911977465233  5.708307229524259 2.44807266182679 4.325301315671288  5.710944497936513 2.272655016976296 4.37040992756159  5.71081479725851 2.433873736239555 4.407275673776807  5.713656751682763 2.248447660598237 4.448821736730988  5.713277122672276 2.419667419145756 4.489131599016922  5.716340655605125 2.224244297233244 4.527172584539614  5.7157261333175 2.405439284170674 4.570903395548983  5.719051434179879 2.200013980593963 4.605456473903875  5.718190956976041 2.39118223573068 4.652611454232076  5.721831480228297 2.175724265517427 4.683648880016026  5.720741988334074 2.376865178013689 4.734251643698546  6.181934599244978 3.066714238416446 4.187483044248772  6.317628412536499 3.118399371689295 4.173093207679869  6.176866232313984 3.184004881907993 4.106478244363474  6.16564423362011 3.231549179890183 4.170027604433463  6.307690932586271 3.159980122447353 4.242322252962291  6.170687321591533 3.104742252377249 4.259376589193205  6.154475524220183 3.27893471163188 4.233590726972839  6.29781139609841 3.201449543085846 4.311481736250828  6.159475987540673 3.142650934910769 4.331229681451725  6.143367999833784 3.32625788524498 4.297135260652376  6.287979268715788 3.24284663597257 4.380588098312922  6.148311103771205 3.180495746756204 4.403033742204684  6.13229921853786 3.373549529611451 4.360662833988947  6.278180151926724 3.284186565927563 4.449659809154163  6.137183046381238 3.218293873462593 4.474804868464931  6.121243857502795 3.420822529710338 4.424182131057406  6.268395574142829 3.325467436089535 4.518713220382522  6.126076011687384 3.256051341191584 4.546559203597694  6.110169410435527 3.468094027634529 4.487692864051387  6.258613334383404 3.366680657234195 4.587767526533739  6.114956448506669 3.293767217730703 4.618312163111175  5.675467272242591 2.983793930309471 4.176915741761174  5.670943919108505 3.018842251201408 4.252802499587317  5.666339446905046 3.053768161956801 4.328573674229444  5.661692514095485 3.088606277044362 4.404246646735502  5.657046770689191 3.123376695721359 4.479838027673468  5.652448233273357 3.158091490155725 4.555363228163405  5.647970156521394 3.192722923139615 4.630868233559098  5.495686930085207 2.871385154949619 4.211972519723443  5.580040989062365 2.743582529108558 4.249783182123375  5.617350500060201 2.856261426577158 4.216418348948371  5.6145151193838 2.881576734719399 4.296902584363981  5.579644673491091 2.760994636563121 4.333112436484229  5.495486912162651 2.898557152217565 4.29240072305431  5.611589832138272 2.906807182052044 4.377214391083874  5.579143611190605 2.778360140421153 4.416230712894413  5.495155852833186 2.925646343963763 4.372655225671235  5.608610841501392 2.931959931090322 4.457380466276842  5.578587399575322 2.795671111484474 4.499201273932254  5.494765784091516 2.95265228620652 4.452747401867083  5.605620641512166 2.957044979429776 4.537439299901688  5.578011487355667 2.812923409914005 4.582058669381987  5.49436523913506 2.979581546266281 4.532721714326335  5.602666500242322 2.982071911398755 4.617416176845808  5.577477135713767 2.830130616649081 4.664833624601791  5.494002721972451 3.006438976879232 4.612604200491633  5.599814535834389 3.007018492564014 4.697348421921166  5.577052128980649 2.847265478531582 4.747559745718799  5.493768271567489 3.033208284761563 4.692432401068149  5.482880867856126 2.273836424482473 4.206990233923855  5.598433777003343 2.229871557621468 4.185817263257669  5.578246913460776 2.367012180160269 4.234527432049203  5.582147018765236 2.346549311423868 4.315357707352885  5.603125901536502 2.199494639375623 4.261587906859779  5.487487694987641 2.247972228898318 4.285087171377212  5.58599125918619 2.326137589684011 4.39606149826726  5.607771764552164 2.169169613231294 4.337264913652504  5.492045955349369 2.222151910074969 4.363077138424818  5.58979513043366 2.305735901851872 4.476651934016501  5.61237050460841 2.138881791552909 4.412878098887958  5.496570190061258 2.196362820934749 4.440974058193062  5.593582419754182 2.285332856079997 4.55716541497272  5.61695347415758 2.108599652425139 4.488430892807717  5.501074367768951 2.17058480581292 4.518806262644962  5.597391573246561 2.264901227717663 4.637607797484183  5.621561644149765 2.078292200563724 4.563911015207281  5.505602866761306 2.144780416736047 4.596572687952271  5.601259349696541 2.244412677842901 4.717988324985687  5.626221729844074 2.047939711714579 4.639307534213097  5.510195191538734 2.118922249795615 4.674272361065541  5.88140234392457 2.27386061865477 4.19964144145013  5.989711104322975 2.216456810477187 4.173874890693371  5.988025280369053 2.182480949903856 4.246929067630258  5.879743905758459 2.24580577612371 4.276150178019397  5.986212786033881 2.148554254547704 4.319962145385393  5.877996275183475 2.217792058826062 4.352575929788087  5.984340507182563 2.114643050378484 4.392963048028273  5.876189765042967 2.189794378386114 4.428948321207734  5.982469992602424 2.080722076663155 4.465921315137445  5.874369372970791 2.161793075755206 4.505270028646868  5.980660490526089 2.046773102365318 4.538828548273815
[...]
<PointData  Vectors="f_16"> 
<DataArray  type="Float64"  Name="f_16"  NumberOfComponents="3" format="ascii">6.8635249203185906e-03 -1.1797162328339243e-02 1.3724569095364353e-02  4.8524380599324979e-03 -1.3393510709593208e-02 1.2683759306022524e-02  6.0210219642883060e-03 -9.9313210939327851e-03 1.4247648159250389e-02  6.6078113694726997e-03 -9.2622212232865882e-03 1.4093734965598122e-02  4.9736205648061981e-03 -1.1007944383741549e-02 1.2471696346797729e-02  6.8407978351016146e-03 -9.8505177546310430e-03 1.3512580827526982e-02  6.9430090868713556e-03 -9.7900083250691966e-03 1.4184566777287709e-02  5.5325295860025976e-03 -1.1005411164342734e-02 1.2404550763633244e-02  7.1817023810718328e-03 -1.0058584993384613e-02 1.3427935198530973e-02  7.3499173163561384e-03 -1.0165409602666894e-02 1.4341743015793711e-02  5.7874594126741345e-03 -1.0982506917124447e-02 1.2555388999275401e-02  7.3332219404504363e-03 -1.0296015703740084e-02 1.3521609962939414e-02  7.7035879757798003e-03 -1.0555951098068355e-02 1.4603931249163623e-02  6.0126001083893382e-03 -1.0934899109139810e-02 1.2901242033830437e-02  7.5135307911717714e-03 -1.0482555887105342e-02 1.3788660798581091e-02  7.7165168456649917e-03 -1.0774064091886495e-02 1.4186776240655112e-02  6.2167459818010442e-03 -1.1014554680120948e-02 1.3385733537576558e-02  8.0412960266168197e-03 -1.1018146649689862e-02 1.4969532297791743e-02  7.9463652965841708e-03 -1.1285726423390057e-02 1.4674147901474109e-02  6.3923067321927721e-03 -1.1349242186387751e-02 1.3955365153711020e-02  8.3623171982115836e-03 -1.1612122100702447e-02 1.5408760262670950e-02  1.2512872302735668e-02 -2.6586891048407265e-03 1.9202402914498817e-02  1.2033674736468160e-02 -5.2848351556070748e-03 1.7569760035115206e-02  1.0849847487509518e-02 -5.6212648823743862e-03 1.7192641411594312e-02  1.1225232995629409e-02 -6.5826146900476099e-03 1.7284351410308558e-02  1.2196334095001878e-02 -6.1400456429485974e-03 1.7605436011785304e-02  1.3091761777542014e-02 -4.7176461623118027e-03 1.9279581108596650e-02  1.3379177970309564e-02 -5.6241625016494115e-03 1.9617762922700413e-02  1.2302745391573576e-02 -7.0041505298007655e-03 1.7783613205333251e-02  1.1321969066224550e-02 -7.3862560115316557e-03 1.7484834214884719e-02  1.3684613359250308e-02 -6.7726689200736327e-03 2.0079504789456637e-02  1.2449499059575120e-02 -7.8743585774467099e-03 1.8022968295200933e-02  1.1557420847189864e-02 -8.2156078809817751e-03 1.7736451728935971e-02  1.4056791299602051e-02 -7.9666404524706674e-03 2.0671596467395050e-02  1.2649261986728010e-02 -8.7702477090647116e-03 1.8349969070000253e-02  1.1854063818068392e-02 -9.0879342059330837e-03 1.8092483381487896e-02  1.2226807014670769e-02 -9.9825822623990663e-03 1.8527102943995833e-02  1.2908930205954978e-02 -9.6983848635964539e-03 1.8735554314438983e-02  1.4497629330095709e-02 -9.1274174442966226e-03 2.1351226090796285e-02  1.2690034067010206e-02 -1.0883860032350189e-02 1.8981699432813543e-02  1.3244295875271608e-02 -1.0648238345649277e-02 1.9121592209226927e-02  1.4998847210958866e-02 -1.0174830647887163e-02 2.2040381016231372e-02  8.0575241108960579e-03 1.1395712337522769e-02 2.1299529915522943e-02  8.0609004529036167e-03 4.1375830039632449e-03 1.8991833528325064e-02  6.6739120827134140e-03 9.0819963142942765e-03 1.9515074825620510e-02  8.2507698409014160e-03 4.1919617333951564e-03 2.0273761744022633e-02  9.6899413949896943e-03 -3.3120151905351110e-04 1.9370216940322066e-02  9.6825672730784761e-03 6.1363029966091205e-03 2.2202477341784304e-02  9.7511381817671754e-03 5.4926083267384175e-04 2.1146765004384192e-02  1.0908106243833766e-02 -2.8907490958426790e-03 1.9836339162267888e-02  1.1107312361731613e-02 2.1202219790992806e-03 2.3208646988025838e-02  1.1641064414258214e-02 -4.2864657473040040e-03 2.0663885924884738e-02  1.2195498636600710e-02 -5.5361134226804059e-04 2.4448483620685409e-02  1.0902795353405173e-02 -1.8088627511487563e-03 2.2226987188703404e-02  1.2360376113561304e-02 -5.8096269915417697e-03 2.1794197525634780e-02  1.3084675765050936e-02 -2.6486001516567779e-03 2.6078347900821940e-02  1.1767768618833116e-02 -3.6422813284902574e-03 2.3669380936356309e-02  1.3113017028708407e-02 -7.2666742646193966e-03 2.3182809022598980e-02  1.4006005840599830e-02 -4.6574367249900888e-03 2.8091981011731101e-02  1.2650678880895001e-02 -5.4025078964426206e-03 2.5483129291572312e-02  1.3918281033781425e-02 -8.4268426450312579e-03 2.4782277915249656e-02  1.5013504313830649e-02 -6.4408114393747105e-03 3.0427142627016013e-02  1.3525504644895778e-02 -6.8925409933390655e-03 2.7643282763634133e-02  7.7948873555554648e-03 -8.5031313793199632e-03 1.5273282560504342e-02  8.1077646403582247e-03 -8.3079799831688103e-03 1.5157907966980733e-02  8.3761623025591179e-03 -8.9625661123075000e-03 1.5258088543656142e-02  8.7106745681196796e-03 -9.5231615445967414e-03 1.5412088738322541e-02  9.0290369846719020e-03 -1.0083208477939991e-02 1.5656245519981939e-02  9.3701076042857108e-03 -1.0696307009889746e-02 1.6000422431065173e-02  9.7622703365603490e-03 -1.1403805933351496e-02 1.6422913591592574e-02  4.3578277163417852e-03 -1.1201151138703456e-02 1.3210785361267269e-02  5.0620409379688704e-03 -8.2874848758617142e-03 1.4565634249026668e-02  6.3508635557844749e-03 -8.8318626661058382e-03 1.4642575652152365e-02  5.1129997281569627e-03 -1.0196621173762677e-02 1.3073605896265463e-02  5.5934869585427182e-03 -1.0494252336947845e-02 1.3126602246278610e-02  6.7515952822696053e-03 -9.2931989707253759e-03 1.4812342090085804e-02  6.0292995857642289e-03 -1.0733747448571930e-02 1.3302143070624819e-02  7.2669893707971158e-03 -9.7913948304158699e-03 1.5023597110696393e-02  6.4231675713122592e-03 -1.0961900653570287e-02 1.3609106866965679e-02  7.7544120376831253e-03 -1.0330377635289087e-02 1.5343138213798775e-02  8.2021119224231099e-03 -1.0903393257567697e-02 1.5759620900539711e-02  6.7726340973832313e-03 -1.1275054879811822e-02 1.4023333767944063e-02  7.0548568721593699e-03 -1.1756232080573449e-02 1.4494873125418084e-02  8.5825782743245010e-03 -1.1498282503087086e-02 1.6252196030497476e-02  8.7597865424985655e-03 -9.5161844450723111e-03 1.4966365467382932e-02  8.0082579166536483e-03 -1.2751036053942261e-02 1.3449382897120091e-02  7.4062221706742374e-03 -1.0102775967719097e-02 1.3200064397812707e-02  8.5974657199209565e-03 -8.4656602272006002e-03 1.4754899932693695e-02  7.5649730421169775e-03 -1.0002726868739967e-02 1.3067918572528986e-02  8.7362644441941906e-03 -9.1231724687993662e-03 1.4722144616777897e-02  7.5391936692930173e-03 -1.0142402530709046e-02 1.3141841761041858e-02  8.8709090514052825e-03 -9.5863933393844254e-03 1.4814169727579419e-02  7.5370140086875393e-03 -1.0181697976712501e-02 1.3442261317221531e-02  9.0257528100154746e-03 -1.0038646493707242e-02 1.5026581173979387e-02  7.5933899213911612e-03 -1.0348828780562322e-02 1.3894721396753332e-02  9.2375746433078498e-03 -1.0568212350133072e-02 1.5336587058211133e-02  7.7626212195125981e-03 -1.0810060611637117e-02 1.4431514699641036e-02  9.5646539278003307e-03 -1.1268522115958962e-02 1.5712279113420460e-02  3.9306104503942551e-03 2.5804970176290824e-03 1.6624926158549904e-02  2.5458056086713836e-03 3.4544432685664644e-03 1.6209766548778603e-02  3.1057703733516758e-03 9.9153614147046432e-03 1.7993918795036642e-02  4.6767362122988902e-03 5.6159938478737336e-03 1.8945318364271341e-02  4.1768832274891293e-03 -6.8237936417133295e-04 1.6719568733920050e-02  5.6804521280650108e-03 -1.5151479862482212e-03 1.7029161264552131e-02  6.3317779419678364e-03 1.8991160195872157e-03 2.0072701926532495e-02  5.6088303042479831e-03 -3.2491748816106630e-03 1.7328670697226288e-02  7.1436673688698620e-03 -3.7564541776947272e-03 1.7547300551976164e-02  7.7068983686249017e-03 -6.9059066306253244e-04 2.1407618603576550e-02  6.6319164754635763e-03 -4.5878388407643534e-03 1.8227821212841083e-02  8.0658588485439647e-03 -4.9974415058280470e-03 1.8401213241340874e-02  8.6764988009094528e-03 -2.5256878284164426e-03 2.3044566871550383e-02  7.3571392422543784e-03 -5.8537870173672058e-03 1.9509685474327184e-02  8.8304495758024359e-03 -6.3294199547422334e-03 1.9612035560139990e-02  9.5279759901782113e-03 -4.2197366103351053e-03 2.5072408370708895e-02  8.0443261252563375e-03 -7.1109585848434650e-03 2.1027224577586798e-02  9.5378645609968948e-03 -7.5590271293432014e-03 2.1060908395711415e-02  1.0275261608450844e-02 -5.7190565495430189e-03 2.7408719342241782e-02  8.6053345258151007e-03 -8.1274844177001270e-03 2.2719967802784315e-02  1.0074972412515933e-02 -8.5519293548643564e-03 2.2656922824065135e-02  9.6083451144149939e-03 4.2220124295482171e-03 1.9971546794231774e-02  1.1234478313531566e-02 -3.1751536887196096e-04 2.0372989156174883e-02  1.2327013990888874e-02 -2.7674662772117957e-03 2.0901448698136156e-02  1.2940270133476693e-02 -4.2316506000684645e-03 2.1819002986514222e-02  1.3632993233624754e-02 -5.8037606829390628e-03 2.2987564594883252e-02  1.4403320704956797e-02 -7.3360229176942099e-03 2.4423380082812484e-02  1.5265734754690889e-02 -8.6112414112296115e-03 2.6014878236618376e-02  1.2094076476113326e-02 9.0869344316987593e-04 2.0227403160051775e-02  1.1293521396887180e-02 -3.3358564978024315e-03 1.8357622743212440e-02  1.0693397650127966e-02 -5.0919221484467321e-05 1.9157886350523925e-02  1.2029450871667525e-02 -3.6467304389975756e-03 1.9320984205461120e-02  1.1902849705402407e-02 -5.3366183531240053e-03 1.8476205301026987e-02  1.3374766423475744e-02 -2.8124210567999218e-03 2.0414145569570063e-02  1.2568029772632775e-02 -4.8100563324273262e-03 1.9731410218283590e-02  1.2220026316382013e-02 -6.0912301676818411e-03 1.8878227474736605e-02  1.3839309446806985e-02 -4.0653988131551678e-03 2.0898733947483438e-02  1.2984765513179496e-02 -5.9178394781673749e-03 2.0338603288308103e-02  1.2602576399946842e-02 -7.1524208860867999e-03 1.9319451075957592e-02  1.4221581096143564e-02 -5.4027807062123250e-03 2.1572098986563603e-02  1.3518700127255793e-02 -7.2279908009614509e-03 2.1129943682096485e-02  1.3036389904685936e-02 -8.2578928626209167e-03 1.9904869574436303e-02  1.4697414571540845e-02 -6.8632914947458863e-03 2.2442806853014665e-02  1.4132080989657320e-02 -8.4933788049392864e-03 2.2085393244948823e-02  1.3540338039624504e-02 -9.3353949580917851e-03 2.0596662186602662e-02  1.5275917568523150e-02 -8.2645192692124420e-03 2.3479556754900276e-02  1.4833905639083666e-02 -9.5551429688127652e-03 2.3141588497816435e-02  1.4154664617796209e-02 -1.0300738736388822e-02 2.1331583375224804e-02  1.5995121733986702e-02 -9.4723566108437102e-03 2.4597656473773176e-02  9.8440017451274803e-03 -1.1512524374292373e-02 1.3636457313864874e-02  8.6630582650625478e-03 -1.4461229515969239e-02 1.2863955844539154e-02  9.4999982979233101e-03 -1.0094195177378832e-02 1.4399449321720865e-02  9.0809529443461618e-03 -8.5686953776228699e-03 1.4081535844709968e-02  7.5971770031002875e-03 -1.0967829270409660e-02 1.2641991890903495e-02  9.0782373205100225e-03 -9.0073202119374200e-03 1.3334115584222065e-02  9.1041846158240111e-03 -9.2439230983919259e-03 1.4087567945220616e-02  7.5426549316281073e-03 -1.0091525011969207e-02 1.2502400744288671e-02  9.0493671748723987e-03 -9.0129131040872761e-03 1.3213404298980498e-02  9.0254751707203856e-03 -9.4697613685745929e-03 1.4218330233831048e-02  7.3338243615942425e-03 -9.9636598341859717e-03 1.2665058926198330e-02  8.7803439002380763e-03 -9.1629689155170897e-03 1.3342531884986160e-02  9.0239176804365918e-03 -9.7561760908205161e-03 1.4459391732400377e-02  7.1560307263069892e-03 -9.7606709753216385e-03 1.3118582761559321e-02  8.6098369019349964e-03 -9.2415209980818442e-03 1.3683143779402489e-02  9.1021129962827012e-03 -1.0181294134719559e-02 1.4820775276654799e-02  7.0491158655848806e-03 -9.6980490832669873e-03 1.3757182713724041e-02  8.5252615089940424e-03 -9.4644414386678786e-03 1.4163512237838712e-02  9.3190084413176145e-03 -1.0860529314408677e-02 1.5206023254207236e-02  7.0702866253838743e-03 -9.9567066111776927e-03 1.4465086705838872e-02  8.5593734967017443e-03 -9.9631816616870400e-03 1.4673712753634098e-02  5.7713511115762162e-03 -1.5475155062849431e-02 1.2381233677321959e-02  4.5102154945651889e-03 -1.8564200203902394e-02 1.1559481423373773e-02  3.7824090531102610e-03 -1.4561950738581107e-02 1.1498167557331533e-02  5.2725647751697734e-03 -1.2133189916871786e-02 1.2213540800077029e-02  4.0302160635307749e-03 -1.2597338954138150e-02 1.1511155883512047e-02  5.6932651142554414e-03 -1.1323155115670655e-02 1.2116236144235727e-02  4.2821612255978300e-03 -1.1937133800296457e-02 1.1862683988635667e-02  5.7612589638850751e-03 -1.1057142258783459e-02 1.2283215199692799e-02  4.3469748480371041e-03 -1.1256233049268101e-02 1.2528225086294826e-02  5.8280220765302964e-03 -1.0753353937339642e-02 1.2728389103737772e-02  4.3864516891505079e-03 -1.0701458499488800e-02 1.3419978152205306e-02  5.9052918093047690e-03 -1.0600612613149860e-02 1.3366299083195079e-02  4.4180689853651886e-03 -1.0499465004752821e-02 1.4442961794840911e-02  5.9906479657726346e-03 -1.0758233509786450e-02 1.4097480166973073e-02  1.4043235723866777e-02 -4.4290791897412850e-03 1.9528466282128197e-02  1.4266133356141296e-02 -5.3026797483514644e-03 1.9920271836364432e-02  5.2615140608374194e-03 -3.0877113341260423e-03 1.6001952813090695e-02  4.6472633652217066e-03 -5.5442967791526727e-03 1.5228003418136007e-02  4.0566564833004158e-03 -2.9450609446552358e-03 1.5492283304768926e-02  5.7079043975037094e-03 -5.8328246112472198e-03 1.5624636552641581e-02  6.1190937326620464e-03 -7.3384904503993077e-03 1.5285339344284405e-02  6.8941628960051066e-03 -5.8542768957442447e-03 1.6102088910171071e-02  6.7004296211720486e-03 -6.5774900324920924e-03 1.5960678470205970e-02  6.7593730526802516e-03 -7.8162304754994180e-03 1.5587156696890725e-02  7.7507787504306229e-03 -6.6096045938969991e-03 1.6438829455281627e-02  7.4020808145213689e-03 -7.4063393332029354e-03 1.6573144152976518e-02  7.4318215135352247e-03 -8.5616538140376609e-03 1.6012377658243149e-02  8.4564828191588479e-03 -7.4368492394904168e-03 1.6976668809770525e-02  8.0990763091639169e-03 -8.3762714837216767e-03 1.7324789779950181e-02  8.0646807606239591e-03 -9.3503128096213643e-03 1.6596986226581564e-02  9.1224376624809041e-03 -8.3890702979416091e-03 1.7673181545591620e-02  8.7144013451762141e-03 -9.2762914669676962e-03 1.8244152336302118e-02  8.6245611068484235e-03 -1.0096070890607234e-02 1.7286055914138912e-02  9.7319184519118300e-03 -9.2876738046421322e-03 1.8534355807804635e-02  9.1899285996169238e-03 -9.9628118889781517e-03 1.9244854616678381e-02  9.0569735558406021e-03 -1.0709296167090123e-02 1.8012306667300429e-02  1.0258213170619127e-02 -9.9618567491910701e-03 1.9513422417037487e-02  1.6351723939421084e-03 -1.0760103542068139e-02 1.1961572945911271e-02  2.1904492700444886e-03 -9.1254445801342062e-03 1.3034217481525112e-02  2.7035716452864342e-03 -1.0206860949749519e-02 1.2700433645793367e-02  3.4402394396424716e-03 -1.0146285445126389e-02 1.2767882469010061e-02  3.0458024633376363e-03 -9.6242067576707748e-03 1.3127613923669883e-02  2.2650252555653084e-03 -1.0596653213239675e-02 1.1862923134147283e-02  2.9410826562747358e-03 -1.0975258183764516e-02 1.1962160923648379e-02  3.7386119940056120e-03 -1.0023733788602558e-02 1.3290961406145671e-02  4.1787032498270243e-03 -1.0577856090463236e-02 1.2915802853078659e-02  3.5593312489925178e-03 -1.1255316567253700e-02 1.2166868718952395e-02  4.3905056656018040e-03 -1.0486183574734898e-02 1.3524571833735460e-02  4.7674923649684590e-03 -1.0902979597050040e-02 1.3131694934975775e-02  4.1509305601898916e-03 -1.1556456638406173e-02 1.2465872900003630e-02  5.0109739583236767e-03 -1.0991733354103519e-02 1.3846622618360815e-02  5.3090519426485430e-03 -1.1252249132118811e-02 1.3449533486078290e-02  4.7176736914616912e-03 -1.1947321748858718e-02 1.2815302467238663e-02  5.5869336714625285e-03 -1.1533370617731083e-02 1.4227187392568438e-02  5.8021087622826565e-03 -1.1674298978866559e-02 1.3832489025200076e-02  5.2645232666600839e-03 -1.2467111055934519e-02 1.3150277951883471e-02  6.1078587482341924e-03 -1.2101756287861821e-02 1.4621008300096531e-02  6.2364231446318677e-03 -1.2194045404942263e-02 1.4215198076618406e-02  1.9184696099092589e-03 -1.2016002188950452e-02 1.1512708331011312e-02  2.5176691541448793e-03 -1.1085020108943879e-02 1.1484402628523084e-02  3.0952918179170947e-03 -1.1339592183311993e-02 1.1507786883960768e-02  3.6555994732396478e-03 -1.1453059707639305e-02 1.1700006289421206e-02  4.1640739055588310e-03 -1.1569396395813817e-02 1.2050383013494171e-02  4.6405471172694815e-03 -1.1803268593568816e-02 1.2471713509985669e-02  5.0891942923126402e-03 -1.2220270233480886e-02 1.2890045975674369e-02  2.3636114659396556e-03 -2.2565955757369409e-02 1.0352616491851116e-02  1.7217447337994211e-03 -1.8342197390659492e-02 1.0075858313206704e-02  2.6032142848346996e-03 -1.5587801460044171e-02 1.1150854114798169e-02  2.6125796106508566e-03 -1.2616112482045690e-02 1.0921273833020684e-02  1.2978285551028805e-03 -1.4598760728574483e-02 9.9854428243242883e-03  1.5578147347188064e-03 -1.7870937998228281e-02 1.0580070379455487e-02  1.4604481043407657e-03 -1.4931920464074743e-02 1.0955923085861166e-02  1.7058067041529196e-03 -1.3107616928880053e-02 1.0105214382722202e-02  3.3083291697291930e-03 -1.2005818968003854e-02 1.0906086428855693e-02  2.0007846808436859e-03 -1.2387228736434823e-02 1.0664317973209035e-02  1.7045163004743894e-03 -1.3414964957736315e-02 1.1662977348366334e-02  3.6452860721978642e-03 -1.1732112132244087e-02 1.1213463680957656e-02  1.8527899068320600e-03 -1.2240937712053280e-02 1.2857687283683569e-02  2.2427846893335653e-03 -1.1622173918250725e-02 1.1581414904819459e-02  3.8911819816970263e-03 -1.1349818152600414e-02 1.1799233306301249e-02  1.9744663743736495e-03 -1.1250787930398187e-02 1.4335200434450765e-02  2.4750401047933372e-03 -1.1036615659273420e-02 1.2710738276096893e-02  4.1053696109789638e-03 -1.1103130521849339e-02 1.2540212986701204e-02  2.1319254598831990e-03 -1.0610469463725077e-02 1.5936612020500361e-02  2.7037710006394852e-03 -1.0797069875361789e-02 1.3861624352386507e-02  4.3029409242113644e-03 -1.1171882608112709e-02 1.3332315988151376e-02  9.3672508874152495e-03 -7.0887720102587540e-03 1.6143815006902939e-02  8.3752982279466145e-03 -6.3273461757982312e-03 1.6211178325734509e-02  9.8705103215128570e-03 -4.1260991261637915e-03 1.7422266808715052e-02  1.0610210119638875e-02 -6.1141250622353694e-03 1.7640793131676241e-02  8.9864407213593109e-03 -7.2219797705470419e-03 1.6395230870435106e-02  9.6619700258950073e-03 -7.6144244594272452e-03 1.6256775389795176e-02  9.4075444485878651e-03 -7.9420565928700233e-03 1.6588458260599060e-02  9.7675382808063010e-03 -8.2478880926889434e-03 1.6328720590542873e-02  1.0923186489197602e-02 -6.7665856621914209e-03 1.7895184142063144e-02  9.8010245196694760e-03 -8.6871540003220227e-03 1.6803892989556000e-02  1.0022503224237880e-02 -8.9326433493405206e-03 1.6482077748123977e-02  1.1335562447703880e-02 -7.6809428678746650e-03 1.8267981196297710e-02  1.0319890859997070e-02 -9.6442533587950824e-03 1.6750797165273931e-02  1.0212715840179692e-02 -9.4655766292515448e-03 1.7147346912819689e-02  1.1786907972784299e-02 -8.6709000817021178e-03 1.8766151969630423e-02  1.0672854326845707e-02 -1.0397494383714340e-02 1.7113966662648927e-02  1.0655137405874872e-02 -1.0251753141277031e-02 1.7604016815339577e-02  1.2294482312595903e-02 -9.6326337120988762e-03 1.9367151042611830e-02  1.1115908471454970e-02 -1.1207978586874301e-02 1.7530764779364646e-02  1.1154556940506294e-02 -1.1011063612010649e-02 1.8133021523914522e-02  1.2896489387591161e-02 -1.0489559864395497e-02 2.0038337153692513e-02  5.2176427695544382e-03 1.6717692887206548e-03 1.6904201578099007e-02  4.3755660315131645e-03 8.6029865424818719e-03 1.8193269428130904e-02  5.9530521014035526e-03 4.1912402128814223e-03 1.8970915264143563e-02  6.9024326650664750e-03 -2.3364421122135221e-03 1.7226053122458045e-02  8.3169861498766165e-03 -4.4112638281053234e-03 1.7629068036502694e-02  7.6387136444048126e-03 5.3265