<?xml version="1.0"?>
<VTKFile type="UnstructuredGrid"  version="0.1"  >
<UnstructuredGrid>
<Piece  NumberOfPoints="959" NumberOfCells="4128">
<Points>
<DataArray  type="Float64"  NumberOfComponents="3"  format="ascii">9.307314076480086 2.443421084076296 3.873317769538949  9.211205620705499 2.513882102258965 3.931352194485028  9.188035095221403 2.393024355369779 3.872505587948195  9.197883587974498 2.35369293329829 3.924876585074164  9.220006931412243 2.483326921418878 3.990780763548674  9.321484197085958 2.40746483717671 3.926785946490282  9.207755163796767 2.314419840338949 3.977300765598099  9.228801129301869 2.452850260986666 4.050260889087236  9.33573844823419 2.371573537480659 3.980294586854196  9.217635025205309 2.275161541469665 4.029719240024636  9.237609286556086 2.422406763795864 4.109749913089767  9.350032527355518 2.335713675134835 4.033806873332445  9.227509065318403 2.235878379865271 4.082101175352848  9.246424963975985 2.391950887374499 4.169214235160975  9.364325356594707 2.299843275113862 4.087292575257983  9.237361863529365 2.196529992228466 4.134423984258029  9.255238393170513 2.361437192922487 4.22863261272641  9.378574269252992 2.263916876056305 4.140732448481685  9.247183221182187 2.157087673491884 4.186685585015398  9.264039150983233 2.330812976954261 4.287990529548333  9.392727738666061 2.227882380073168 4.194115267766442  9.860926223423379 2.399542671118393 3.670577426892411  9.753287782081907 2.412352291432748 3.717927386640648  9.812664003101373 2.319229053819123 3.605314934820608  9.825946596051663 2.277137080322814 3.645369632254679  9.767318345472921 2.373272969075409 3.764362015340797  9.87489385493191 2.360044658100655 3.715089593824227  9.888862305662483 2.320557090325813 3.759515810624412  9.781362008415993 2.334218973459897 3.810716397559725  9.8392656001897 2.23507438400196 3.685343008899176  9.902835316562998 2.281096979047054 3.803877896718061  9.79541506787672 2.295190965838234 3.857013975215695  9.852621960885728 2.193047483394126 3.72527946786933  9.91681188154115 2.241660062704184 3.848192768251554  9.80946839867709 2.25618568051516 3.903264111677492  9.865977195823961 2.151041514634433 3.7651747677316  9.930754482601676 2.202226954473718 3.892450496417936  9.823477479028027 2.217182871556757 3.949451420232637  9.879282796490338 2.109039247180496 3.805016986929017  9.837408038964872 2.178161254288647 3.995570159266324  9.944606552521146 2.162793815737747 3.93663297028373  9.892471361662672 2.067030952263218 3.84479186883476  9.701875004047123 3.129814460679683 3.942288344804531  9.657481074899948 3.238665592837555 3.923641606782544  9.58974757138742 3.11045185651866 3.965843625218963  9.602554775511519 3.121169966912408 4.033734700644252  9.670540099379791 3.259048904076275 3.988767742627847  9.716065245513725 3.141108461906349 4.009288037263177  9.615222276364156 3.131823270205343 4.101533073149784  9.683401970867179 3.279334713668297 4.053868530915193  9.730082063378381 3.152311578971554 4.076257490106268  9.627817780370139 3.142410227990534 4.169265820107796  9.696177787937291 3.299537689842857 4.118951560048755  9.744020100548909 3.16343401035194 4.143203375628055  9.640396311875234 3.15291748081455 4.236948621514119  9.708954429455883 3.319662360024237 4.184009454250316  9.757948851493779 3.174477026273338 4.210125654364941  9.653015726794335 3.163355577260134 4.30457757173555  9.721811569849029 3.339721837671807 4.249025240401813  9.771944600151537 3.185467299472217 4.277008444654988  9.665732620248773 3.173756017674306 4.37212242392755  9.734843143070149 3.359765526009268 4.31394910807211  9.78607911805925 3.196449934196786 4.343809173190841  9.667394904004649 3.042103713219545 3.958225085765155  9.682107601342093 3.045956795714935 4.025988340993258  9.696675065509018 3.049752982880563 4.093673149791293  9.711170188943575 3.053479193621099 4.161306071197203  9.725649849080751 3.057132963872857 4.228896529537558  9.740175582447698 3.060733148551988 4.296441026751154  9.754808002743054 3.064310653588099 4.363914650348113  9.69097485902242 2.333194727201225 3.659695294227914  9.704177157158149 2.291744570040853 3.70215234346845  9.717422905788466 2.250314241773571 3.744543801105645  9.73071199231088 2.20892323687859 3.786903236435229  9.743997601235174 2.167546245149313 3.829224788189382  9.757230051686422 2.126159929885515 3.871500935499714  9.770357672526439 2.084738185325157 3.913721498469831  9.081235646872845 2.443165310045634 3.910456561656731  9.086609461039266 2.409532876434004 3.968120051311677  9.091946615602838 2.375980602969509 4.025862611881123  9.097276128633581 2.342448788634615 4.083620108232217  9.102608054297026 2.3088960391063 4.141353259239611  9.107945102756501 2.275282164568764 4.199037476155286  9.113291693399333 2.241561669203611 4.25665613834172  10.44181539444125 2.477508863071608 3.597588423061135  10.32186514537437 2.454223399707451 3.59519494079247  10.35522496711082 2.372840902870155 3.514419245089863  10.32907108034634 2.415001416143613 3.640138627759451  10.44594760440062 2.4388576049347 3.64405948838986  10.36150471661226 2.332068587154308 3.555889130039863  10.33604230916804 2.375782028383543 3.685033305329158  10.44971401900184 2.400162659995479 3.690506525516652  10.36752931947376 2.291286093686942 3.597317339063786  10.34287583902987 2.33651561207257 3.729873218517044  10.45329671739187 2.361372874261888 3.73692721595241  10.37341401717198 2.250453492105694 3.638708566285687  10.34970558197252 2.297193827210114 3.774655962583525  10.45688690250551 2.32248233219086 3.783312916261361  10.37929747431206 2.20956764062116 3.680057304999411  10.35665336751135 2.257848973033623 3.819365574519982  10.46064780455571 2.283524043315617 3.82966651982758  10.38532867323845 2.168650489506581 3.721343492995683  10.36386628886986 2.21854906910477 3.863981122556786  10.46478204942752 2.244561260808111 3.875969914213658  10.39165838634134 2.127766756368403 3.762541290159273  9.540126998473282 3.218104758244057 3.952169018398159  9.55257053022623 3.236444251249219 4.018716036533941  9.564842814741171 3.254714734332207 4.085169021194757  9.577035636917472 3.272896716372694 4.151555231853954  9.58921647213695 3.29098753310498 4.217888252920384  9.601450631279658 3.308998840629192 4.284161216819765  9.613809699765614 3.326965157567412 4.350345920171875  9.083825673650713 2.557569604624104 3.968642669060719  9.090110210521345 2.528443384977711 4.030212003046512  9.096377810653188 2.49942552485803 4.091830630423241  9.102643887956894 2.470447669360777 4.153454924512041  9.108914080180902 2.441457225787379 4.215053471456987  9.115185910972986 2.41240178794931 4.276603091362473  9.121459274725883 2.383217792774147 4.338077436706969  9.551199525044623 2.413313355914998 3.858630990728965  9.665007152619332 2.395841433473595 3.811590354828008  9.605691405174515 2.315106251614032 3.756827483300854  9.651089124773495 2.433998183778433 3.763127633461375  9.535988014049337 2.4510012165677 3.808759229575187  9.619287376897629 2.274141206834446 3.801228409829192  9.566445588288444 2.375662763826186 3.908451837797036  9.678925818188842 2.35771849326449 3.859985304463591  9.632928323814683 2.233210450760331 3.845604902033526  9.581726473001376 2.338046284851186 3.958244038108331  9.692861007323986 2.319621110075432 3.908332799367023  9.646568652753013 2.192290143629646 3.889947603849235  9.597014441663044 2.300441973715702 4.00800332486799  9.706800083759148 2.281540585108597 3.956640635808589  9.660154064820661 2.15135491776677 3.934242901933885  9.612253817169888 2.262811233526638 4.057711871717083  9.720696276103917 2.243447591256777 4.004892432059198  9.673612680153266 2.110379967854267 3.978479450891447  9.627372460478524 2.225121319611758 4.107354008057698  9.734508775104096 2.205322609224827 4.053076292069052  9.909494943475382 2.479755040910471 3.720272445290097  9.814054241434361 2.496226034441745 3.760611903687052  9.828446249315352 2.460350595092263 3.810712563296955  9.923348210570774 2.443118741163539 3.768808374745261  9.842818007861283 2.424495635867677 3.860726148183613  9.937166418846219 2.406495795885263 3.817249059067243  9.857168500081997 2.388653018922122 3.910658686724881  9.950955052025535 2.369877794105557 3.865611403371488  9.871519965439417 2.352826836849979 3.960537254790991  9.964744516988182 2.333275083260177 3.913918176628965  9.885850919019919 2.316997855966884 4.010358583816565  9.978519204830253 2.2966738213219 3.962160842667975  9.900133432767635 2.281153963127768 4.060113600942623  9.992254921819681 2.260078803580667 4.010323723998553  9.328385716881284 2.528407052014538 3.920692761562492  9.340579998273064 2.496044734087982 3.978358662984276  9.352786252866915 2.46375726228556 4.036031025379039  9.365022514008039 2.43150731996043 4.093697029387179  9.377266790828088 2.399250786520904 4.151331696875124  9.389489042036908 2.366941087323295 4.208916545106691  9.401659470202743 2.334529417602162 4.266440103366072  9.714264527334057 2.517535996881227 3.802641529146696  9.728793160063455 2.483433219239862 3.855157753941097  9.743314454402189 2.449358258381187 3.90758783154534  9.757816941609773 2.415287538125854 3.959943801032843  9.772325230919741 2.381233085198296 4.012250963681117  9.786808758492143 2.347170970676181 4.064501707314885  9.801224114627589 2.313089666099236 4.116674164523773  10.15432643819966 2.267898193265913 3.441424515395341  10.13861294605887 2.35234146039094 3.536438638167008  10.01193616215183 2.296685405710492 3.520221804026187  10.14921570602163 2.311638059567676 3.576773749139883  10.16313133533152 2.225669970576113 3.47791400602106  10.02395079542228 2.254437363602232 3.558092662096177  10.03596240608238 2.212215437951124 3.59588774419749  10.15972676161031 2.270970099850399 3.617027218158075  10.17185551679197 2.183472482602784 3.514333854673995  10.0479843920236 2.170035489699097 3.633633018059499  10.1701964433745 2.230312542937105 3.657234772689426  10.18053624574081 2.14129031081344 3.55070994797388  
[...]
<PointData  Vectors="f_16"> 
<DataArray  type="Float64"  Name="f_16"  NumberOfComponents="3" format="ascii">-2.5438389908947097e-02 -1.3137020155854977e-02 -2.2769870924831199e-02  -2.5829656202133861e-02 -9.6095501473147989e-03 -2.2030423806681510e-02  -2.4509179315613791e-02 -1.5109592944179637e-02 -2.0623483461188901e-02  -2.3573875499934626e-02 -1.0292311480384425e-02 -2.0033304857942490e-02  -2.5176568341882352e-02 -5.6854162781309779e-03 -2.2002068692608019e-02  -2.4445603921105542e-02 -8.4480567659929087e-03 -2.2434306303764733e-02  -2.3375272676958329e-02 -6.8561083419168261e-03 -1.9128129508119377e-02  -2.5206957356785992e-02 -3.6613982640814145e-03 -2.1806716517208967e-02  -2.4547139217345887e-02 -5.5215830042155351e-03 -2.1856649010633611e-02  -2.3177794741247728e-02 -4.3708278662762633e-03 -1.7816145032195727e-02  -2.4448058018358837e-02 -2.3172125230046920e-03 -2.1296352158464878e-02  -2.4426157108399554e-02 -3.3315794811675081e-03 -2.0907184941094312e-02  -2.2426096146678818e-02 -2.4747806709700662e-03 -1.6098391570225402e-02  -2.3309514519774036e-02 -1.3255310348998020e-03 -2.0433423793360821e-02  -2.3755118833889713e-02 -1.6530555905935737e-03 -1.9600612041922382e-02  -2.1324970195216172e-02 -1.0766959821430365e-03 -1.4053117503662530e-02  -2.2165269976518201e-02 -5.0130306896085258e-04 -1.9325635679404637e-02  -2.2772522946938722e-02 -3.2231870682422381e-04 -1.7993279846966484e-02  -2.0162520004377189e-02 6.3130535378341297e-05 -1.1865323266815570e-02  -2.0997785496797622e-02 1.1064773975954122e-05 -1.8019841215803644e-02  -2.1616535012187552e-02 7.4143023307622678e-04 -1.6219018539197251e-02  -3.1055715137599367e-02 -2.5913502656334630e-02 -2.7378064761280824e-02  -2.9380541491247355e-02 -2.2011417917054840e-02 -2.6799087671567343e-02  -2.9561129286227547e-02 -3.4998136146090236e-02 -2.3819344493308844e-02  -2.9108925599362605e-02 -3.0491080914893609e-02 -2.1539119914865335e-02  -2.8303617184433610e-02 -1.7029139512928167e-02 -2.5647364443157818e-02  -3.0216832983492221e-02 -2.1108219913441841e-02 -2.5912866658442984e-02  -2.9518738523775585e-02 -1.6846239744500228e-02 -2.4303885973560160e-02  -2.7726016925093269e-02 -1.2975580658276514e-02 -2.4297131283513303e-02  -2.8374105381555988e-02 -2.6227793488636748e-02 -1.9260122222565238e-02  -2.9152323479783818e-02 -1.3231510561096267e-02 -2.2517937868322277e-02  -2.7602443242161084e-02 -9.7624633479256404e-03 -2.2680798634374874e-02  -2.7783857734925404e-02 -2.2285665243122279e-02 -1.6856641216971870e-02  -2.9012181173262746e-02 -1.0182649013906852e-02 -2.0481348687867027e-02  -2.7602596407041647e-02 -7.0877240713296766e-03 -2.0790474043463878e-02  -2.7414463619890792e-02 -1.8718036868815093e-02 -1.4268304133875372e-02  -2.8710138764229162e-02 -7.3704723328606812e-03 -1.8119127746672334e-02  -2.7285008739216913e-02 -4.5921662334088998e-03 -1.8565996054489345e-02  -2.7124761706169020e-02 -1.5377918248730568e-02 -1.1388245834343422e-02  -2.6598106894356866e-02 -2.1967444322537315e-03 -1.5967572951707528e-02  -2.8019095586430363e-02 -4.6031294071897750e-03 -1.5342355296023014e-02  -2.6556649631733230e-02 -1.1965273014371013e-02 -8.0634423399267331e-03  -3.4187542248724626e-02 6.5831864431945006e-03 -2.6688275911429492e-02  -3.4019553190472424e-02 9.1972599796998917e-03 -2.5105392292542196e-02  -3.2957006112284262e-02 4.9294906526711809e-03 -2.5118732255613788e-02  -3.3586958316627460e-02 3.1779572146772989e-03 -2.5206677420608833e-02  -3.4541589334271899e-02 5.9285084882668530e-03 -2.5044785242625673e-02  -3.4825069868984870e-02 4.4695441525409579e-03 -2.6784179847351777e-02  -3.2678712694413935e-02 2.1536796891202109e-03 -2.5155883375406411e-02  -3.4559592696814030e-02 4.0770634359754976e-03 -2.4792579293305566e-02  -3.4245900253428989e-02 3.3696440617213570e-03 -2.6702730775515000e-02  -3.1741052144070955e-02 1.2543271445186006e-03 -2.4864019378893550e-02  -3.3760337461866664e-02 2.7507582178109172e-03 -2.4278593182377423e-02  -3.3373306314846835e-02 2.4458053922202915e-03 -2.6410111873750770e-02  -3.0739992159614399e-02 3.9035747970186718e-04 -2.4417024058735987e-02  -3.2852690635811144e-02 1.4153583312409960e-03 -2.3468624292414475e-02  -3.2414665908570194e-02 1.5313188988470621e-03 -2.5910851400117760e-02  -2.9656483763862429e-02 -3.8745447925734152e-04 -2.3838032732120765e-02  -3.1844518214449072e-02 2.1277543590056679e-04 -2.2461997196584621e-02  -3.1347969685942764e-02 7.1181490719810501e-04 -2.5265319317386042e-02  -2.8496956241424634e-02 -1.0082480412117126e-03 -2.3187082514373392e-02  -3.0729559819022301e-02 -7.3318795621015766e-04 -2.1380883596988937e-02  -3.0177116596186396e-02 5.2572154780373642e-05 -2.4591210232943542e-02  -3.3399642464920401e-02 4.3456533253647981e-03 -2.6768267287254760e-02  -3.3985222335426050e-02 3.1063772577729679e-03 -2.6916313965637075e-02  -3.3136911464910435e-02 2.3880023596536343e-03 -2.6964138341024260e-02  -3.2180120878077922e-02 1.7373935668969596e-03 -2.6816548204782780e-02  -3.1163088906319702e-02 1.0902237387501693e-03 -2.6483482606691675e-02  -3.0043139601048676e-02 4.9769771534506786e-04 -2.6031898068502052e-02  -2.8799734979816260e-02 -2.5557693469794066e-05 -2.5544105581371053e-02  -2.7947268408030034e-02 -3.0382002012171883e-02 -2.3577796121293917e-02  -2.7199505801968817e-02 -2.5459623612367456e-02 -2.1678532653859949e-02  -2.6425165109541411e-02 -2.1054337230279323e-02 -1.9717900391629784e-02  -2.5966388838045511e-02 -1.7182000920770765e-02 -1.7529830085529371e-02  -2.5838240320658658e-02 -1.3867473608002024e-02 -1.5107473021717079e-02  -2.5691152777780092e-02 -1.0779449158421340e-02 -1.2374623105384609e-02  -2.5260679546427852e-02 -7.6938198917263735e-03 -9.2209737356928941e-03  -2.5052554838434594e-02 -1.3396827212438111e-02 -1.9901825149552459e-02  -2.4165346902255976e-02 -8.5553311296246940e-03 -1.9595459244900731e-02  -2.3970423432749879e-02 -5.5928687532864263e-03 -1.9163885938735727e-02  -2.3293972163727181e-02 -3.7364360389050043e-03 -1.8372701020312930e-02  -2.2076538513235149e-02 -2.4542011399927184e-03 -1.7213441565292004e-02  -2.0869978232886992e-02 -1.3818875790459800e-03 -1.5743205374900968e-02  -1.9716199636531977e-02 -6.2541505116794080e-04 -1.4042746418804508e-02  -4.1716259587660606e-02 -2.4241980133157873e-02 -3.4918709834945320e-02  -3.9467593818251441e-02 -2.6495879065069904e-02 -3.3194677199589150e-02  -3.9401574234030456e-02 -3.6192652512781802e-02 -3.0136494115054650e-02  -3.8748054944053846e-02 -2.2121939663077218e-02 -3.1777030241617182e-02  -4.1006337150464971e-02 -1.9887737941740202e-02 -3.3667777642336527e-02  -3.8695465269158728e-02 -3.1863694855918029e-02 -2.8014076251504819e-02  -3.8123240841852687e-02 -1.8101314328300342e-02 -3.0209949442930449e-02  -4.0417232904457270e-02 -1.5883140811206096e-02 -3.2227996350677600e-02  -3.7975905637619406e-02 -2.7943658820413140e-02 -2.5901645811080329e-02  -3.7626984518561946e-02 -1.4406340363588127e-02 -2.8458424099564176e-02  -3.9966923628518600e-02 -1.2216254115745218e-02 -3.0602439068410869e-02  -3.7363874428855547e-02 -2.4219279199330295e-02 -2.3666370123461559e-02  -3.7279625668260138e-02 -1.1134083897625715e-02 -2.6506816652135619e-02  -3.9624986466381434e-02 -8.9524598103936804e-03 -2.8790458792693194e-02  -3.6828592889183998e-02 -2.0651466090454852e-02 -2.1248832405654516e-02  -3.6792931987950514e-02 -8.1199812188948329e-03 -2.4205824067780598e-02  -3.9119106697134996e-02 -6.0750001897001971e-03 -2.6631476294291155e-02  -3.6244581416083603e-02 -1.7147645317124378e-02 -1.8539641102514909e-02  -3.6020411309535684e-02 -5.2411188912711284e-03 -2.1435510307583169e-02  -3.8385021990495365e-02 -3.4612900615849035e-03 -2.3949074814735030e-02  -3.5466867905706481e-02 -1.3627762056245218e-02 -1.5423393885405938e-02  -3.2972866956937484e-02 7.0691299672699624e-03 -2.3684267742300254e-02  -3.3328684131584858e-02 4.0891384402397370e-03 -2.3598659546711819e-02  -3.3076611427192815e-02 2.5017779172800325e-03 -2.3369283695701442e-02  -3.2133713417617137e-02 1.2950545991059880e-03 -2.2924246471859405e-02  -3.1172983642980191e-02 5.0806343702815376e-05 -2.2204842226814257e-02  -3.0149945849541747e-02 -1.0595365272371491e-03 -2.1311734037187967e-02  -2.9050199604683257e-02 -1.9289530558418853e-03 -2.0339262045933601e-02  -2.5962668132765567e-02 -8.5828948437524071e-03 -2.0510103178789058e-02  -2.5373239224022733e-02 -5.0885636076126598e-03 -2.0555092208673957e-02  -2.4967381423088936e-02 -3.6051602507854532e-03 -2.0424722223538281e-02  -2.3722702806097500e-02 -2.8721188426573422e-03 -2.0025983706763319e-02  -2.2499276740981764e-02 -2.1675291247568694e-03 -1.9274086317306274e-02  -2.1305778788225708e-02 -1.6024438585209705e-03 -1.8335695202971587e-02  -2.0123705510104929e-02 -1.3841937415325477e-03 -1.7283919954013259e-02  -2.5713713562635288e-02 -1.0529493778298784e-02 -2.4967426028907769e-02  -2.6852264180488951e-02 -1.3359172212805409e-02 -2.5557745624912764e-02  -2.5848746767554141e-02 -2.0470110330374571e-02 -2.2183355084233591e-02  -2.8148799992581752e-02 -1.8428445680673148e-02 -2.6381870450447476e-02  -2.6930395424062652e-02 -1.5380172024172066e-02 -2.5520475771838143e-02  -2.5058431246909912e-02 -1.6080186782947321e-02 -2.0544170763272772e-02  -2.5504620714285411e-02 -7.1686689964209618e-03 -2.4135485655032582e-02  -2.6422568207014361e-02 -9.6001612708442909e-03 -2.4492796072962130e-02  -2.4846784319349439e-02 -1.2534342922348299e-02 -1.8647323861653624e-02  -2.5757650559916006e-02 -4.8280195278367927e-03 -2.3047881957106699e-02  -2.6574445769654224e-02 -6.8695957432621264e-03 -2.3165266774553779e-02  -2.4962926661764445e-02 -9.6248039827362651e-03 -1.6454682636636429e-02  -2.5619337866095590e-02 -2.7836509050341318e-03 -2.1596980793101322e-02  -2.6573655648255475e-02 -4.5351268144538373e-03 -2.1532412981021900e-02  -2.4872136478538868e-02 -6.8499897111469286e-03 -1.3918441493620809e-02  -2.5044859691364298e-02 -1.0122960468406056e-03 -1.9817727266576077e-02  -2.6172766414946182e-02 -2.3986673738999598e-03 -1.9543952714798241e-02  -2.4445101840469829e-02 -4.2084982912194537e-03 -1.0974736678547080e-02  -2.4107873878695410e-02 4.6180303979402690e-04 -1.7713189594133014e-02  -2.5381843247816060e-02 -4.9327786374204281e-04 -1.7223809125402084e-02  -3.2364047545432144e-02 -1.8564528052671760e-02 -3.0142665986492120e-02  -3.0785686833180868e-02 -1.5421673436278869e-02 -2.9447222656790006e-02  -2.9717424627091257e-02 -1.0723318307127134e-02 -2.8855148289852636e-02  -3.1444229515385794e-02 -1.3852592498868239e-02 -2.9326753921193601e-02  -2.9409537622576962e-02 -7.2959051371645888e-03 -2.8101903365019842e-02  -3.0888585099575223e-02 -9.9622151381351404e-03 -2.8321945134969526e-02  -2.9495691324869920e-02 -4.8127325716800715e-03 -2.7027325677815031e-02  -3.0738459596495054e-02 -6.9593016328438426e-03 -2.7115351067144716e-02  -2.9346557153138723e-02 -2.7511863227282496e-03 -2.5673639708795635e-02  -3.0623858007914811e-02 -4.5438479278246298e-03 -2.5590012834286135e-02  -2.8751690138757547e-02 -9.1200460290698086e-04 -2.4022745652745904e-02  -3.0106218440170522e-02 -2.3595261825688700e-03 -2.3766199446736653e-02  -2.7757548695279226e-02 7.0289873784290123e-04 -2.2032743888183975e-02  -2.9181040300514507e-02 -3.5898717858655923e-04 -2.1557851452328487e-02  -2.6205795662600503e-02 -8.5692460272017851e-03 -2.3718144883538152e-02  -2.5695881989352933e-02 -5.0344428808227672e-03 -2.3706357416022877e-02  -2.5811377561962834e-02 -3.1105940008451603e-03 -2.3470976922617466e-02  -2.5241798806582904e-02 -1.7595974104700266e-03 -2.2917239123907640e-02  -2.4238518532198709e-02 -7.1906577262968155e-04 -2.2028116558679107e-02  -2.3123039917399467e-02 1.5672768248455344e-04 -2.0893027410499622e-02  -2.1943809602206335e-02 7.2135200875590841e-04 -1.9682255165428521e-02  -2.9320278388879979e-02 -1.2422105869872416e-02 -2.8583149427506581e-02  -2.8292429859082140e-02 -7.8892948442913519e-03 -2.8266882356196663e-02  -2.8241215900252116e-02 -4.9237918778459889e-03 -2.7746265186364031e-02  -2.8499518670245111e-02 -2.9648021279850929e-03 -2.6941361057033528e-02  -2.8239393880738119e-02 -1.2567878455344600e-03 -2.5819125418124325e-02  -2.7496400006145505e-02 2.2387208470034278e-04 -2.4396891880504600e-02  -2.6402732803032517e-02 1.4280882210624369e-03 -2.2699775603583935e-02  -3.5110961028307054e-02 -4.8779169725182869e-02 -2.2909545944352839e-02  -3.5429591700289816e-02 -3.7366129243730450e-02 -2.7472476456354068e-02  -3.2777627353122459e-02 -4.1986890772777424e-02 -2.3737092644975172e-02  -3.4816746271960172e-02 -3.2934493115937297e-02 -2.5281402241357394e-02  -3.4325970959770122e-02 -4.4687465340338163e-02 -2.0046202005863573e-02  -3.2163272641909935e-02 -3.7606445018690024e-02 -2.1095802212394998e-02  -3.1492300833068324e-02 -3.3654930864250747e-02 -1.8574373009087469e-02  -3.4120359756180725e-02 -2.8901152573299761e-02 -2.3100234635419499e-02  -3.3570969696895568e-02 -4.0966841349306934e-02 -1.7375798074832506e-02  -3.0860125167021822e-02 -2.9915891188693519e-02 -1.5998148440595557e-02  -3.3505226231705161e-02 -2.5112217012232940e-02 -2.0834421824346208e-02  -3.2847193858706061e-02 -3.7381336717617182e-02 -1.4739208433878749e-02  -3.0330352980248009e-02 -2.6316161351287341e-02 -1.3275558719378248e-02  -3.3021952885735083e-02 -2.1527546342349182e-02 -1.8400671884896986e-02  -3.2151807105660062e-02 -3.3818912314062394e-02 -1.1994031474012819e-02  -2.9734614402774355e-02 -2.2685204686950001e-02 -1.0280254575070981e-02  -3.2494729361935905e-02 -1.7996501842045997e-02 -1.5663926117718947e-02  -3.1397323837542089e-02 -3.0185311942054864e-02 -9.0506892709109193e-03  -2.8978132626011538e-02 -1.8917240535878160e-02 -6.9096568649631334e-03  -3.1766265816389992e-02 -1.4391131835436237e-02 -1.2538873399894681e-02  -3.0585736542280830e-02 -2.6379081187730340e-02 -5.8099240852766626e-03  -2.4669666954535326e-02 -1.7673707762079421e-02 -2.1741015194058008e-02  -2.3924704300181877e-02 -1.3403513516075324e-02 -2.0252811499154269e-02  -2.3874384209526395e-02 -1.0150304963145132e-02 -1.8463439774891732e-02  -2.4053486239222484e-02 -7.4575981169446252e-03 -1.6324490680118636e-02  -2.3939959023998262e-02 -4.9457222524983673e-03 -1.3809905800572975e-02  -2.3463332680256212e-02 -2.6673577135730760e-03 -1.0924322066344212e-02  -3.8196443353116644e-02 -2.1169111146444455e-02 -3.3809642636439347e-02  -3.7810632616555817e-02 -1.2877144228815389e-02 -3.4994195447393309e-02  -3.5824085878333363e-02 -1.8159052488400003e-02 -3.2819505112539650e-02  -3.5012294708493666e-02 -1.3564353937079669e-02 -3.2010501781008303e-02  -3.7045017658422282e-02 -8.3318396511757094e-03 -3.4538592024604867e-02  -3.7484209769018062e-02 -1.6703277206993786e-02 -3.2793398752921976e-02  -3.4383275037256168e-02 -9.6166294841117800e-03 -3.1052666558490417e-02  -3.6576255863749615e-02 -4.6775142814860443e-03 -3.3980780772115832e-02  -3.6881806074015332e-02 -1.2636964905851061e-02 -3.1617951253512445e-02  -3.4120697741665006e-02 -6.4979277063690905e-03 -2.9898821064692983e-02  -3.6464916220940141e-02 -2.1166068157933192e-03 -3.3247610221778676e-02  -3.6468910721112059e-02 -9.1341026424706668e-03 -3.0263603033088938e-02  -3.3955899584570029e-02 -4.0819272712682994e-03 -2.8500438924437748e-02  -3.6219104455675610e-02 -3.1416524588952970e-04 -3.2263732189116781e-02  -3.6221727860324453e-02 -6.2795437386056760e-03 -2.8693002853922848e-02  -3.3369453272129111e-02 -1.9185993796192664e-03 -2.6725641627131251e-02  -3.5457431867249804e-02 1.1890583120559820e-03 -3.0882418684533286e-02  -3.5720310766772762e-02 -3.7663051007459148e-03 -2.6753828251846478e-02  -3.2352822731720014e-02 5.3473495065956316e-05 -2.4511889931149441e-02  -3.4283889722471941e-02 2.4418593531643127e-03 -2.9101424152338747e-02  -3.4803396145382470e-02 -1.4747017122490966e-03 -2.4314165539941406e-02  -3.5815406176849980e-02 -2.7214365099205468e-02 -3.0719307934379575e-02  -3.5180982024717596e-02 -2.2789295092063053e-02 -2.9211709756279795e-02  -3.4515481791502739e-02 -1.8787490077949259e-02 -2.7588305628087919e-02  -3.4019175864908713e-02 -1.5131445321694414e-02 -2.5772534137262083e-02  -3.3695735698573384e-02 -1.1905830538096877e-02 -2.3742845102141603e-02  -3.3288312616646748e-02 -8.9107272760349694e-03 -2.1370939515147080e-02  -3.2510658362198720e-02 -5.9219246921336744e-03 -1.8522947276959755e-02  -3.3410065161669278e-02 1.1223217372906500e-02 -2.2615730328540484e-02  -3.2032560034681960e-02 6.4239084563138165e-03 -2.1698552519374026e-02  -3.2318685686461783e-02 3.2937910514518076e-03 -2.1675430466148567e-02  -3.3448577664472345e-02 7.0462964973056590e-03 -2.2387909574090942e-02  -3.2047871797419393e-02 1.5753291776946896e-03 -2.1383767525662116e-02  -3.3782567847366204e-02 4.4849615741113322e-03 -2.1866588608707285e-02  -3.1090591916928294e-02 2.3331728585652706e-04 -2.0773624297125658e-02  -3.3198489077133631e-02 2.5278489816689285e-03 -2.1059994867230342e-02  -2.7976475800169300e-02 -9.6176228931678064e-03 -2.7244441883662950e-02  -2.7201926133768182e-02 -5.5546996918860543e-03 -2.7173628898430092e-02  -2.7506966402967042e-02 -3.2965850438397100e-03 -2.6889239908099515e-02  -2.7596132066289355e-02 -1.6882594966583244e-03 -2.6271128692934617e-02  -2.7054920004354124e-02 -3.1217951428111259e-04 -2.5381678642372344e-02  -2.6068685856794546e-02 7.6707830798086534e-04 -2.4218503426225172e-02  -2.4872848677792544e-02 1.6259707487377003e-03 -2.2807367962677034e-02  -3.3782979190913873e-02 -2.4280830550942174e-02 -2.9820947363716079e-02  -3.1897880387835163e-02 -3.4191056120256511e-02 -2.5900705728903708e-02  -3.1339106493228415e-02 -2.9639749357536393e-02 -2.3769298142565037e-02  -3.2911932772084311e-02 -1.9590667894618882e-02 -2.8538187786024103e-02  -3.0661116249599749e-02 -2.5472155403326154e-02 -2.1661099182546984e-02  -3.2230393080329225e-02 -1.5483269376870522e-02 -2.7098117517789462e-02  -3.0074994721066783e-02 -2.1619991953142872e-02 -1.9418893369920913e-02  -3.1795638131942916e-02 -1.1909910225753627e-02 -2.5458455996984292e-02  -2.9693800260633889e-02 -1.8062631004062583e-02 -1.6984292903594825e-02  -3.1629201399560707e-02 -8.9760379253931277e-03 -2.3585335649331310e-02  -2.9315224810569938e-02 -1.4701780509051366e-02 -1.4261939166403347e-02  -3.1209200680827744e-02 -6.2122115912373547e-03 -2.1343504547083329e-02  -2.8682055706987914e-02 -1.1288304327596662e-02 -1.1117498030140829e-02  -3.0386227578046890e-02 -3.5490117579769043e-03 -1.8685054180529893e-02  -2.4482053630189217e-02 -3.9493189334668700e-03 -1.9295272265985059e-02  -2.4126447210160301e-02 -5.0239965451943629e-03 -1.8540643234455718e-02  -2.3660692931758938e-02 -4.8942115056926291e-03 -1.7781912256041064e-02  -2.4633860042304119e-02 -7.0689173592385565e-03 -1.8766808236751704e-02  -2.5337885631483655e-02 -4.7400696453661090e-03 -1.9385903912452485e-02  -2.2280156445724647e-02 -4.4631345551242934e-03 -1.7267800011724319e-02  -2.3115809110531772e-02 -3.5338809199048681e-03 -1.8868151722151227e-02  -3.8669077251896590e-02 7.6899805773263203e-03 -2.9282763419471721e-02  -3.7367681956230692e-02 9.4481191535543095e-03 -2.6299578131768156e-02  -3.7031433398276810e-02 6.3304351610995162e-03 -2.7904537937231608e-02  -3.6431958891612784e-02 5.0759347508365915e-03 -2.7437163589401025e-02  -3.7517073116125517e-02 7.2898525171451378e-03 -2.5548093652134788e-02  -3.8138658505745084e-02 6.3317162321014416e-03 -2.8806650316121094e-02  -3.5748798531957414e-02 3.8015770197234676e-03 -2.6707425559489750e-02  -3.7460039225578154e-02 5.0729285171762940e-03 -2.8069404495425800e-02  -2.6575029944309735e-02 -1.0814988025340734e-02 -2.5054784783882449e-02  -2.5720269034369816e-02 -6.5976063813729807e-03 -2.4890078924364546e-02  -2.5949866029646759e-02 -4.1912847996006530e-03 -2.4495012062654149e-02  -2.5888157834893923e-02 -2.3738142219207762e-03 -2.3814103639783882e-02  -2.5265586062830012e-02 -9.1537224723495822e-04 -2.2784730879907452e-02  -2.4306925049478668e-02 2.5814625369168892e-04 -2.1455455821723198e-02  -2.3123620817860551e-02 1.1335771934372532e-03 -1.9949958825335699e-02  -3.9335490718170052e-02 