<?xml version="1.0"?>
<VTKFile type="UnstructuredGrid"  version="0.1"  >
<UnstructuredGrid>
<Piece  NumberOfPoints="978" NumberOfCells="4133">
<Points>
<DataArray  type="Float64"  NumberOfComponents="3"  format="ascii">7.756346543560839 3.985815953288962 2.626919644788184  7.641986783248147 4.011301550186336 2.62110819494618  7.69002750012586 4.001074645001665 2.757934063608752  7.707404812237086 4.059774471468604 2.756914221083961  7.657446609946667 4.069641991651911 2.619865797758573  7.768572389223087 4.043477326014183 2.628374436004047  7.724529136249416 4.118737320626375 2.756113626809114  7.672653256512517 4.128236787208876 2.618817185317212  7.780593917599284 4.101355522194165 2.629996807086159  7.741585600862687 4.177943968035956 2.755393827988798  7.687785267949344 4.187041003066472 2.617845230664065  7.792570723571585 4.159461331265504 2.631673538318617  7.758755152857717 4.237329760658588 2.754645408149828  7.703007930295865 4.246011942880838 2.616857543280048  7.804649192956331 4.217783399205834 2.633336050486284  7.776214329158553 4.296828429496322 2.753786186186359  7.718498660261585 4.305114048769888 2.615777293702209  7.817001570615628 4.276341403894413 2.634916464170793  7.794235213696831 4.356328577747814 2.752698034290422  7.734501150847785 4.364302055277746 2.614484847435176  7.829900255664599 4.335167068366461 2.636315966074616  6.280491086515354 4.117740947791112 2.663498268874296  6.296397624963699 4.105411086288909 2.831994576040755  6.365077596748239 4.174020413317361 2.740937593059936  6.327128890187447 4.230689257558859 2.746786595650759  6.256338764132637 4.158095285805604 2.842701128357591  6.24274054661562 4.171912704514685 2.668015685283197  6.289715395711887 4.287549697958701 2.752543517139334  6.216682890509758 4.21113877381593 2.853334023670448  6.205451846345365 4.22635626504315 2.672453405062706  6.252561326600092 4.344418015933704 2.758294252855424  6.17721254944169 4.264329591939813 2.863981484426617  6.168401081669483 4.280904509198016 2.676889838263557  6.21546370304655 4.401173984810493 2.764072637404557  6.137747695182673 4.317491287944208 2.874677857363377  6.13138494054353 4.335406689301482 2.681377099110424  6.178270346813735 4.457697360686915 2.769872676884617  6.098123594174035 4.37046611621648 2.88541910193603  6.094222518126272 4.389703984618903 2.685908320026167  6.140863324292661 4.513879251004543 2.77568698150929  6.058181900567369 4.423077250436206 2.89615500626206  6.056735518471721 4.443603546213046 2.690470592076047  7.98815861405948 3.930132528059549 2.819869017469321  7.915336958609338 3.950083013134791 2.743931240682197  7.892306110521463 3.944378168862724 2.871717567931367  7.905913470978318 4.002001029784148 2.875279114600418  7.925449240408911 4.006815935519147 2.747866416197219  7.998073269355079 3.986593985825855 2.824886001327856  7.919336663202399 4.059901105919251 2.879059240303981  7.935404264384037 4.063773527631564 2.751965702131578  8.007861192954108 4.043315821297057 2.830073929942623  7.932752328350405 4.118071453367064 2.882910541818835  7.945352293700624 4.120992122748174 2.756137009194059  8.017653439827582 4.100303237872749 2.83533281899706  7.946305429237696 4.176480471052471 2.886729136324044  7.955420763492657 4.178473579786985 2.76028602664644  8.027572055787594 4.157569573159343 2.840570011982723  7.96013572929394 4.235104474734189 2.890436008152347  7.965745183094176 4.236256016801948 2.764354265567984  8.037726946359058 4.215157543798894 2.845744550024389  7.974448765127627 4.293936732743047 2.89391177706282  7.976502203582214 4.294388644950223 2.768272988974759  8.04829669620559 4.273168836471797 2.850759374863022  6.428590941215169 4.214921432922246 2.631812409407768  6.530764483731806 4.25194918132875 2.524068473558486  6.419406675993569 4.205967828306739 2.481753725718781  6.390292899445712 4.267424549390146 2.476705723277716  6.507756889337642 4.31763797384867 2.51721575548505  6.396265006913554 4.275948897654887 2.63150345042143  6.361733242036893 4.328729020701076 2.471631989917895  6.485255380016342 4.382925893856005 2.510355148875119  6.364532210981133 4.336931726951797 2.63109205134821  6.333477341594358 4.38987644604431 2.466594681633456  6.463011384840682 4.447892165566166 2.503532403336042  6.333104523335903 4.397797362737105 2.630691726822029  6.305339206528576 4.450830874801172 2.46157719095067  6.44086616511166 4.51261393559802 2.496727392336971  6.301779038089305 4.45848683359867 2.630295015318184  6.277164345983062 4.511537294740768 2.45657831395137  6.4186737123263 4.577110693226421 2.489998435280091  6.270421132595978 4.518940666396166 2.629907098612235  6.248755428575539 4.571924677633542 2.451657799532345  6.396322433771247 4.641331703551149 2.483393544614171  6.238828832012846 4.579060907308867 2.629646232890659  7.570989016019495 4.041264728164146 2.734663722064379  7.591986788204153 4.100350478533107 2.73023031160077  7.612702515012336 4.159719273322146 2.726005561406476  7.633333872371817 4.219304982229756 2.721866664499858  7.654059239769688 4.279024276238662 2.717703635380811  7.675056665285436 4.338782069459918 2.713454566820923  7.696566479496979 4.398430507927329 2.708993272246416  7.809549911935015 3.970456803800995 2.723898799786645  7.821940252735507 4.027950517061744 2.725331399295184  7.834140569069448 4.08577131442286 2.726938644823606  7.84630268740199 4.143823213431173 2.728609822854427  7.858582143549969 4.202095295297696 2.730257065821509  7.871135178761512 4.260599269508427 2.731817163873946  7.884212441100548 4.319372723676367 2.733156445801286  6.762467698048972 4.461167297545668 2.107418888575442  6.87414134931498 4.470830326677144 2.185821721925074  6.741939854448191 4.515362510337028 2.257221953408501  6.739872593080652 4.449853692710221 2.273657480777407  6.885426338254344 4.533313862736065 2.167981674160741  6.766537899549672 4.524156632965815 2.088192790117358  6.744020950770684 4.580621755355931 2.240905906630909  6.77067811707875 4.586900027158905 2.069052347503811  6.896854754737626 4.595494166833267 2.150274413747414  6.746136525315138 4.645621868036538 2.224749799814055  7.792868566914091 3.974177812097957 2.822425636863768  7.808138559377344 4.032515642014587 2.823485888851099  7.823209079928778 4.091206146334235 2.824762732485139  7.838257064094502 4.150132170174357 2.82611759571004  7.853443487355087 4.209267784588235 2.827431266193812  7.86894267836764 4.268590026070552 2.828626109812327  7.885002502139682 4.328070714340559 2.829581317633941  6.600223212326989 4.470066631628675 2.143373103543341  6.593472602734042 4.533853876180566 2.125677633266163  6.586661524464913 4.597389777789473 2.108096333134603  6.314284740644849 4.14499128525523 2.545921064925006  6.279393440116539 4.201622293245148 2.546351101634833  6.245097587972038 4.258354855858705 2.546708457496594  6.211084347917674 4.31509306177179 2.54708038055015  6.177148854946936 4.371734684550891 2.547489605297348  6.143125532974137 4.42815241028551 2.547917694468687  6.10885640994248 4.484203070638053 2.548347531323828  7.533713061238597 4.044188941694779 2.607375019859374  7.552038721696552 4.102889375071223 2.603412170114789  7.570086498519329 4.161846659955221 2.599633821878596  7.588037845397555 4.220989580907378 2.595940942725913  7.606065973895574 4.280253160699804 2.592231364489786  7.624346274257412 4.33957108750511 2.588441432735995  7.643131579110362 4.398842578904764 2.584437879572134  7.331428471994383 4.111917579640309 2.575336998613384  7.244393464892187 4.136089500131934 2.495127459645501  7.261401873342969 4.155296203761813 2.630339014921666  7.287690529290541 4.214826609770037 2.618903023683755  7.268355736324733 4.194657449529109 2.483952977722248  7.355708421673623 4.170290577385844 2.565571278459343  7.313545502030393 4.274507354558862 2.607602189538437  7.291891814588841 4.25337821754183 2.472898010207557  7.379612741387857 4.228884378495607 2.555939705846198  7.33918996884122 4.334240885631619 2.596387722773365  7.315207392061202 4.312159976026097 2.46192886429876  7.403331795499975 4.28760061427181 2.546388466611516  7.364819598001485 4.393936431074713 2.585227332381297  7.33849737741077 4.37091709963466 2.451017283597086  7.427045655691552 4.346343565973514 2.53687777941702  7.390606686211241 4.453493161620882 2.574098064073223  7.36195179572577 4.429553822781834 2.440139924257017  7.4509396723228 4.405017555380498 2.527379781769358  7.416736780124497 4.512735177319764 2.562911596829463  7.385826932189281 4.487872470452896 2.429219715319716  7.47530667382132 4.463415143420233 2.517790179126575  7.160140189047128 4.192510589869405 2.590182642100577  7.18435238113996 4.253763226552114 2.578649129022081  7.208098891056515 4.31504969880273 2.567237841396839  7.231620158183067 4.376301150949211 2.555908267323441  7.255090079321993 4.437444487123329 2.544641362675167  7.278650405776587 4.498393318509221 2.533433683944117  7.302459447221463 4.559007562755198 2.522235423073197  6.319710007460778 4.134574634144127 2.296102026605398  6.422601545958945 4.186626678267928 2.351648719008537  6.430918099366043 4.171863853613894 2.236096657244806  6.407470616408875 4.233558564798969 2.223394509106033  6.395445533203159 4.247713943453482 2.342565423992385  6.290919414134242 4.193412394673486 2.288577103198908  6.384592737753294 4.294962069072503 2.210779145863261  6.368882091873817 4.308570228697267 2.333518481055406  6.262643910761674 4.25227882442397 2.281077775301708  6.528438124609503 4.259373477287262 2.843829457286887  6.450023717236292 4.220087442979501 2.789974657957552  6.464482187217543 4.215187688615488 2.929425751532187  6.415514250614006 4.281496309612709 2.79424050415266  6.499265890968694 4.325630255395287 2.848342771516746  6.425922985252949 4.274818754513857 2.940131586165983  6.387942801393215 4.33453219918128 2.950704245711454  6.381607567108603 4.342805686806542 2.798395031921997  6.470633280456143 4.391607944665082 2.852712033057635  6.350208742944023 4.394166633622571 2.9612312838889
[...]
<PointData  Vectors="f_16"> 
<DataArray  type="Float64"  Name="f_16"  NumberOfComponents="3" format="ascii">-1.0507440570252175e-02 1.4089831437571593e-01 2.7721540073882465e-02  -9.7135733054996096e-03 1.3677190322373936e-01 2.8279749931685812e-02  -9.4070545842641559e-03 1.3387271264704770e-01 2.6887979855437890e-02  -1.2079551587491123e-02 1.3531192698132546e-01 2.9197933731704963e-02  -1.2351597947547357e-02 1.3819759182948607e-01 2.9123955436042057e-02  -1.3085819224114515e-02 1.4220705767352501e-01 2.8763882643277356e-02  -1.4210386632941911e-02 1.3623428339805907e-01 3.1248351482582419e-02  -1.4498172097738521e-02 1.3914347923973469e-01 2.9893486198545260e-02  -1.5242387287328329e-02 1.4309654594731744e-01 2.9592440560329735e-02  -1.6003577681958214e-02 1.3667849729882028e-01 3.3300512783352068e-02  -1.6335471655577055e-02 1.3958361620071458e-01 3.0684983360314947e-02  -1.7081058509008422e-02 1.4347780076601180e-01 3.0424052265092129e-02  -1.7900334110529922e-02 1.3670717538404464e-01 3.5461439015888309e-02  -1.8299987610324506e-02 1.3956164300089829e-01 3.1553783058369457e-02  -1.9011393402244618e-02 1.4337309358334019e-01 3.1305839933253032e-02  -1.9999162877722864e-02 1.3632144354842521e-01 3.7912252387192480e-02  -2.0482976593139735e-02 1.3904694085051564e-01 3.2642248568077112e-02  -2.1128693017876128e-02 1.4273649403589925e-01 3.2359892975591560e-02  -2.2403377624311046e-02 1.3551874311201972e-01 4.0896937024362146e-02  -2.3020722401939486e-02 1.3795136740138647e-01 3.4154320826332893e-02  -2.3567641522645042e-02 1.4154211685215728e-01 3.3768290775757728e-02  -1.4427128866836276e-02 1.1057414847234853e-01 4.2866729060983648e-02  -1.4159656375140573e-02 1.0651337670951251e-01 4.4488035007556964e-02  -1.3608619508733174e-02 1.0697630339591140e-01 4.2785621838986133e-02  -1.2142929322255242e-02 1.0699942150767049e-01 4.3942057782146077e-02  -1.2572517064566507e-02 1.0684506682369743e-01 4.6109473291646171e-02  -1.3025635512831639e-02 1.1105521262078706e-01 4.3432914390514589e-02  -1.0821778114131845e-02 1.0683360123904263e-01 4.5004152223610608e-02  -1.1092617647775874e-02 1.0688806610508661e-01 4.7634862919187955e-02  -1.1713421011876200e-02 1.1120635141595699e-01 4.3902789043245509e-02  -9.4945685422929103e-03 1.0654571829572734e-01 4.6022682829494184e-02  -9.5955782118714340e-03 1.0676613312881103e-01 4.9111083183380817e-02  -1.0335408152151697e-02 1.1116175612548695e-01 4.4325509880409092e-02  -8.0543955235774598e-03 1.0621415419901228e-01 4.7049928641488568e-02  -7.9859068757337209e-03 1.0657378434667492e-01 5.0573531331415095e-02  -8.8040020366194280e-03 1.1102123494230809e-01 4.4738213151028258e-02  -6.4356632598487878e-03 1.0591124255841385e-01 4.8140505607857480e-02  -6.1927821292014898e-03 1.0640486984325280e-01 5.2056821299914575e-02  -7.0437009888610902e-03 1.1087578240920265e-01 4.5181485902274103e-02  -4.6123038765102445e-03 1.0572528232037723e-01 4.9357410086492491e-02  -4.1679843865815762e-03 1.0636439291634768e-01 5.3578869280912288e-02  -5.0004105429560259e-03 1.1079582053748722e-01 4.5714880768412763e-02  -1.1291105818707676e-02 1.4193363458564906e-01 2.4236939818709946e-02  -1.1002852853014547e-02 1.4302993388733085e-01 2.5691507731490978e-02  -1.0231724665285602e-02 1.3495714104615611e-01 2.3992362853808631e-02  -1.2880887610072278e-02 1.3598207886726621e-01 2.7740419848999009e-02  -1.3623053861665067e-02 1.4413646700307484e-01 2.8182385233442513e-02  -1.3890542582236879e-02 1.4286098307563208e-01 2.7596397250422448e-02  -1.5020804008887414e-02 1.3653669160087348e-01 3.1020140318490933e-02  -1.5845699611392799e-02 1.4486275785661182e-01 3.0200208583830764e-02  -1.6106267168038309e-02 1.4342745748090668e-01 3.0432553348500875e-02  -1.6759809838333528e-02 1.3664674526648354e-01 3.4195246665053573e-02  -1.7660649465974676e-02 1.4508477732518926e-01 3.2171385832387191e-02  -1.7889793899111262e-02 1.4350957864620928e-01 3.3172188402411776e-02  -1.8492746133806477e-02 1.3636697002563464e-01 3.7443000378549904e-02  -1.9504507471909641e-02 1.4483838535748250e-01 3.4179100309088301e-02  -1.9671674134932843e-02 1.4314387154564634e-01 3.5938728890451167e-02  -2.0374121070241363e-02 1.3570210540640615e-01 4.0956603376618272e-02  -2.1504716424009869e-02 1.4409500163999309e-01 3.6374632319271585e-02  -2.1603772556372986e-02 1.4231456394846992e-01 3.8919368837562335e-02  -2.2516189379224907e-02 1.3464071681240192e-01 4.4960316135209101e-02  -2.3776715719466737e-02 1.4286497913422391e-01 3.8954129788513432e-02  -2.3819132121179441e-02 1.4093104155423924e-01 4.2389283437289552e-02  -1.3310689817633305e-02 1.0744530287967914e-01 4.0435856163276378e-02  -1.2826735412249981e-02 1.0690573846051860e-01 3.7641896751628420e-02  -1.3236289304071286e-02 1.0778235536106068e-01 3.8562184699255292e-02  -1.2254369299083624e-02 1.0730194629032788e-01 3.8086904978822264e-02  -1.2263556105736149e-02 1.0597615571170081e-01 3.7740136821074320e-02  -1.2118669989678527e-02 1.0710251882606474e-01 4.1035536276102673e-02  -1.1390180482237664e-02 1.0663039846246414e-01 3.7578922348500993e-02  -1.1810981421165127e-02 1.0498787543277113e-01 3.7729673228860235e-02  -1.1093842912536232e-02 1.0660754746108281e-01 4.1530011791230545e-02  -1.0498368183673123e-02 1.0582652768767237e-01 3.7073466812964098e-02  -1.1339060470777575e-02 1.0393781578980381e-01 3.7705103936124543e-02  -1.0061213662832165e-02 1.0601881693772715e-01 4.1988306849034505e-02  -9.4903134161246992e-03 1.0494732744055472e-01 3.6612912664756858e-02  -1.0792367201064582e-02 1.0284579768306162e-01 3.7726650534491118e-02  -8.9326508074864010e-03 1.0538938064923679e-01 4.2470798017570498e-02  -8.3070897538784164e-03 1.0405295263402435e-01 3.6243853471501712e-02  -1.0138412381806301e-02 1.0174376230013858e-01 3.7851168849103466e-02  -7.6565201804684405e-03 1.0476039559203404e-01 4.3033237064332479e-02  -6.9362454798806393e-03 1.0323354711976054e-01 3.5994719286960651e-02  -9.3512256033725961e-03 1.0062424738340008e-01 3.8151926209124623e-02  -6.1834017158133052e-03 1.0416190479118431e-01 4.3732529789181268e-02  -9.3725931706208406e-03 1.3055435308175900e-01 2.8107199953582001e-02  -1.1959027439086396e-02 1.3212702810242835e-01 3.0044332392669640e-02  -1.3978438624519524e-02 1.3314700811227304e-01 3.1854771923141664e-02  -1.5776872546933558e-02 1.3369819000898572e-01 3.3660495002549862e-02  -1.7745465696683879e-02 1.3384677502355050e-01 3.5596033664731852e-02  -1.9961053528360907e-02 1.3360848828538752e-01 3.7868058076926496e-02  -2.2521635076757886e-02 1.3301875681664743e-01 4.0762805292336717e-02  -1.0166917489889703e-02 1.3983908952644297e-01 2.6402380449226277e-02  -1.2780594213414284e-02 1.4108574736599999e-01 2.8525447416602671e-02  -1.4987568875758294e-02 1.4194064125084890e-01 3.0286406665937526e-02  -1.6812891650528360e-02 1.4230167274082758e-01 3.2026012437375170e-02  -1.8693922552171172e-02 1.4220364889017181e-01 3.3821194684303515e-02  -2.0750267259620005e-02 1.4163883495253021e-01 3.5828457168078157e-02  -2.3119478651044249e-02 1.4053237286520084e-01 3.8305418300790192e-02  -1.5788668969752409e-02 9.4512803096735223e-02 2.4093216208380907e-02  -1.7150540710224829e-02 1.0080664085438187e-01 2.5510814057385311e-02  -1.5792013256202300e-02 9.9955412042303002e-02 2.8589063962435921e-02  -1.4888211582050665e-02 1.0167937905458266e-01 2.9627160027182978e-02  -1.8714399502561475e-02 9.8995985034923836e-02 2.4153000610336716e-02  -1.6885896088612348e-02 9.2359768786638083e-02 2.2252428903098927e-02  -1.6805087056987592e-02 9.8177438948440512e-02 2.7727055831343658e-02  -1.8203470981487193e-02 9.0125974005134724e-02 2.0654010860613598e-02  -2.0567751183982692e-02 9.7187561251303123e-02 2.3098245004949076e-02  -1.7953978453050551e-02 9.6530979614476237e-02 2.7069495627936955e-02  -9.7836844042402359e-03 1.3432321094704450e-01 2.5588903669440135e-02  -1.2468409027461822e-02 1.3559944099798080e-01 2.8627584397376359e-02  -1.4600270923029761e-02 1.3635331809138068e-01 3.1360526579878312e-02  -1.6358903005854644e-02 1.3665199983327345e-01 3.4031360101434205e-02  -1.8178976255624053e-02 1.3654036063990876e-01 3.6798437000134708e-02  -2.0181773873806572e-02 1.3603974495903337e-01 3.9857455334760761e-02  -2.2451234277627203e-02 1.3518846141062729e-01 4.3475546447574086e-02  -1.3547361957639248e-02 9.3927992499517540e-02 2.5853883030463043e-02  -1.3891353551878252e-02 9.1841248644759607e-02 2.4108537763471664e-02  -1.4240495365967705e-02 8.9640030281785729e-02 2.2533860906283839e-02  -1.4037543535908430e-02 1.1020006826645980e-01 4.1005976149322533e-02  -1.2781394490561458e-02 1.1044154520068422e-01 4.0777607526293051e-02  -1.1602314800609626e-02 1.1034923679639336e-01 4.0524295754459851e-02  -1.0375627062767843e-02 1.1005995716951320e-01 4.0248857298521783e-02  -9.0017850520037086e-03 1.0966851688998430e-01 3.9989486631486874e-02  -7.4050576654987720e-03 1.0925484082861997e-01 3.9780056209041528e-02  -5.5164452440678953e-03 1.0889311534953107e-01 3.9633842279124185e-02  -9.4921259272047528e-03 1.3311921640446520e-01 2.9022132309215163e-02  -1.2106798125608503e-02 1.3458646568525201e-01 2.9641420542201643e-02  -1.4171406539490637e-02 1.3551577517308733e-01 3.0266344259451985e-02  -1.6003619188854283e-02 1.3595324058496652e-01 3.0943916813740497e-02  -1.8004047039084089e-02 1.3595028736398543e-01 3.1735828527616687e-02  -2.0265859593343424e-02 1.3547906549417432e-01 3.2807406672107992e-02  -2.2925952671224829e-02 1.3451448160225835e-01 3.4404270000926163e-02  -9.7289192613916001e-03 1.2628309226730203e-01 3.0332380525515665e-02  -1.0175861775723688e-02 1.2379090787096395e-01 3.0978119239107333e-02  -1.0294178344726819e-02 1.2262924933229540e-01 3.1046095698523238e-02  -1.2488995395462017e-02 1.2397631822032797e-01 3.1978745954101828e-02  -1.2470497872237741e-02 1.2492577981293002e-01 3.0593151107314691e-02  -1.2134473787908657e-02 1.2769974641533896e-01 3.0668493282452788e-02  -1.4223392206508810e-02 1.2472764941096454e-01 3.2885222404569016e-02  -1.4263020076906970e-02 1.2549355799401191e-01 3.0274603948759776e-02  -1.3993255385373181e-02 1.2855296395882951e-01 3.1025847683074367e-02  -1.6092701538414213e-02 1.2505241196389871e-01 3.3810590422954326e-02  -1.6098399825202420e-02 1.2560321993658943e-01 3.0024816352666104e-02  -1.5818142047113643e-02 1.2894496674666150e-01 3.1416109804106737e-02  -1.8183472814825845e-02 1.2503620241542418e-01 3.4916148125425178e-02  -1.8156462886875616e-02 1.2531892318576540e-01 2.9911537515678974e-02  -1.7864587879032036e-02 1.2894565946087169e-01 3.1940011695284334e-02  -2.0592178140323818e-02 1.2475726089489851e-01 3.6396678946125242e-02  -2.0554319695562803e-02 1.2468160918586356e-01 3.0112767712990554e-02  -2.0225522111789879e-02 1.2857730904232909e-01 3.2790411715308838e-02  -2.3434033144727848e-02 1.2433842834224108e-01 3.8466720758383192e-02  -2.3458195787844322e-02 1.2384905527452901e-01 3.0958611046246320e-02  -2.3083013515991326e-02 1.2786922869849413e-01 3.4344466638155838e-02  -1.0736310643621679e-02 1.1960384711573185e-01 3.1804772532785137e-02  -1.2792678381535458e-02 1.2060828737281383e-01 3.2550040924486552e-02  -1.4557930764420381e-02 1.2100347494567203e-01 3.3216423555861609e-02  -1.6418344738288321e-02 1.2098236945071782e-01 3.3940801906437078e-02  -1.8483532033007091e-02 1.2066831025039558e-01 3.4853489241013079e-02  -2.0859834415043063e-02 1.2016985888565598e-01 3.6099566169674684e-02  -2.3617251110384103e-02 1.1962311568136350e-01 3.7778795767827743e-02  -1.2989643405385727e-02 1.0559964782208606e-01 3.8602950685990199e-02  -1.2958732629877746e-02 1.0576520601645426e-01 3.7269076873898500e-02  -1.2386421676367672e-02 1.0201691447173410e-01 3.6428859175799862e-02  -1.1787465104675777e-02 1.0082854086377933e-01 3.4176428929441033e-02  -1.2153647329540372e-02 1.0501738787725585e-01 3.5871327006611518e-02  -1.2028688657705885e-02 1.0514707166767789e-01 3.6517076304453083e-02  -1.1260794575138712e-02 9.9475895861931923e-02 3.1986745426501415e-02  -1.1452068697225194e-02 1.0406731051511964e-01 3.4471504852449625e-02  -1.1128667684292036e-02 1.0440420315351356e-01 3.4494989418254296e-02  -1.2268769275732779e-02 1.0124097948071030e-01 4.2660106415007497e-02  -1.2945711990096415e-02 1.0401904592596127e-01 4.2502003154083957e-02  -1.2279132298012883e-02 9.8914819332089024e-02 4.4467265998318982e-02  -1.1566337208665074e-02 1.0359836131061859e-01 4.4090623605674555e-02  -1.1140775208791091e-02 1.0031825618387565e-01 4.4673717546462315e-02  -1.0733891865116205e-02 9.8294380082452074e-02 4.6704621234792319e-02  -9.4274856178662072e-03 9.7634700496119151e-02 4.8835936511373718e-02  -1.0401184068900463e-02 1.0307875399432601e-01 4.5516745067207730e-02  -1.0227592158318371e-02 9.9454420174912558e-02 4.6520384183192390e-02  -8.1656270931258386e-03 9.6983047472893963e-02 5.0916391618143084e-02  -9.2620033590631243e-03 1.0251219088642936e-01 4.6880486835571597e-02  -9.3478791926325470e-03 9.8613035348461997e-02 4.8302072223038200e-02  -6.8513872987173152e-03 9.6368249733412681e-02 5.3000756142586668e-02  -8.0526260402238297e-03 1.0194347427867696e-01 4.8258312750498827e-02  -5.2279298019761037e-03 1.0096206487779727e-01 5.1373331370925701e-02  -6.3164316604326079e-03 9.6321331270227101e-02 5.4078880853158588e-02  -3.9126016960372607e-03 9.5367552545368522e-02 5.7427019155228465e-02  -7.4213364504531242e-03 9.7014816976450036e-02 5.2004061957515064e-02  -6.7180710195658298e-03 1.0141620814519973e-01 4.9726582914850548e-02  -1.2756173691505763e-02 1.0497081244581448e-01 4.0609482344008817e-02  -1.2848112143785069e-02 1.0645384257035682e-01 3.9332992094456037e-02  -1.2018665899723687e-02 1.0564520098715452e-01 4.0049769842962671e-02  -1.1798285820942703e-02 1.0418574505178219e-01 4.1919893826414756e-02  -1.1004398233568984e-02 1.0338426487376588e-01 4.3101126556656433e-02  -1.1343888252623171e-02 1.0482461868258826e-01 4.0662249687930085e-02  -1.0223367627512673e-02 1.0256905028980935e-01 4.4229383113042663e-02  -1.0654215997672316e-02 1.0395089318275273e-01 4.1245426207284372e-02  -9.3794994491225459e-03 1.0175549974339985e-01 4.5385186800554374e-02  -9.8848904407507002e-03 1.0304389332484017e-01 4.1866082295032019e-02  -8.4320717952342025e-03 1.0096939718556509e-01 4.6633645016581085e-02  -9.0002120488039978e-03 1.0213010018388309e-01 4.2585929870579180e-02  -7.3188906190977850e-03 1.0014825853992883e-01 4.7985126998675499e-02  -8.0084237506504261e-03 1.0132823921121890e-01 4.3480407985163554e-02  -1.4182167334336946e-02 1.0343288107626372e-01 4.5442343208899727e-02  -1.3084119572683043e-02 9.9197961844362831e-02 4.5248348960096114e-02  -1.1343617264302230e-02 9.9012517858561647e-02 4.7574126965726327e-02  -1.3616041660552046e-02 1.0896260664637833e-01 3.9575101985079630e-02  -1.2507272132444751e-02 1.0888693170674625e-01 3.8539111816128228e-02  -1.1462063959289505e-02 1.0852062647281692e-01 3.7500634713854786e-02  -1.0367252501445148e-02 1.0796454807703394e-01 3.6471670882983670e-02  -1.0718527390575498e-02 1.0298202723686312e-01 3.3091818540286103e-02  -1.3220776850964009e-02 1.0325471893101267e-01 4.3891193192871922e-02  -1.1640089828159493e-02 1.0311897367648742e-01 4.5670136119066319e-02  -1.0242354702563256e-02 1.0280798855718014e-01 4.7379170864352421e-02  -8.8726334892545809e-03 1.0242031652690577e-01 4.9038856697543223e-02  -7.4250816235046516e-03 1.0202210729472413e-01 5.0697164507886229e-02  -4.0911416651606500e-03 1.0144554828365221e-01 5.4158139401931683e-02  -1.3434994405393117e-02 9.0474790885932910e-02 2.0997109941358765e-02  -1.2731593372319378e-02 9.2451351773273016e-02 2.3757920170461647e-02  -1.2992957993193629e-02 8.0116215879437763e-02 2.3949754960731012e-02  -1.3948738128126567e-02 9.1517379692135123e-02 3.0175392639049732e-02  -1.4133834713025104e-02 7.7916183101407160e-02 3.0297699300501878e-02  -1.2845771086781770e-02 1.0636999990925577e-01 3.6879289238525279e-02  -1.2227520556486215e-02 1.0544286454650391e-01 3.6066653506308784e-02  -1.1702308064727777e-02 1.0440315660750163e-01 3.5227662466454000e-02  -1.1151191629613186e-02 1.0326108921769668e-01 3.4412206829582639e-02  -1.0507965889166018e-02 1.0204830901403167e-01 3.3660285274706374e-02  -9.7300099443653320e-03 1.0080848609296583e-01 3.3001472832029602e-02  -8.7719356992972224e-03 9.9584188454505326e-02 3.2468172837543711e-02  -1.0093410437636396e-02 1.2604034908024228e-01 2.4735273852746084e-02  -1.2554505359897727e-02 1.2715006531595979e-01 2.8917371337760518e-02  -1.4453946647712065e-02 1.2773748584024680e-01 3.2703162516164334e-02  -1.6084190041523484e-02 1.2795783263775709e-01 3.6357632818279695e-02  -1.7788086010521072e-02 1.2784373474610211e-01 4.0123972367856836e-02  -1.9640483253298015e-02 1.2743318926325162e-01 4.4218827647335930e-02  -2.1697883535404319e-02 1.2676926628899873e-01 4.8899169327493962e-02  -1.1971295128944525e-02 9.7592986513698785e-02 3.2551629570025879e-02  -1.1890473715707218e-02 8.7572892097175961e-02 3.6505158537705550e-02  -1.1979150217165705e-02 8.6894241042927284e-02 3.3888483850043977e-02  -1.3435422939305077e-02 8.5773049191845252e-02 3.9542615049261411e-02  -1.3394310215631743e-02 8.6550764412932996e-02 4.2138266198036782e-02  -1.3452769944785864e-02 9.7801257828196667e-02 3.7958847503091253e-02  -1.4763985130544017e-02 8.4711935848040987e-02 4.4824536303807373e-02  -1.4762591768160084e-02 8.5595985638872135e-02 4.7326497301323260e-02  -1.4935512561400528e-02 9.7864559823886837e-02 4.2899981310082838e-02  -1.6049511189680343e-02 8.3673768993377112e-02 5.0012530134944180e-02  -1.6090298447964821e-02 8.4660363874705394e-02 5.2403658276229802e-02  -1.6447092947261793e-02 9.7825717661255043e-02 4.7720522012445692e-02  -1.7329022512104893e-02 8.2644200008368862e-02 5.5289614278800976e-02  -1.7443279763304207e-02 8.3736778851387139e-02 5.7576727159419756e-02  -1.8012485961373770e-02 9.7710979628662556e-02 5.2643787703028182e-02  -1.8620921426543237e-02 8.1625843962513281e-02 6.0756569274360038e-02  -1.8851048089518947e-02 8.2830440702819363e-02 6.2976179171799665e-02  -1.9637021796872139e-02 9.7558216333455544e-02 5.7821865755359345e-02  -1.9925647766046297e-02 8.0651826105804361e-02 6.6446896018031998e-02  -2.0303590599696504e-02 8.1965107914476462e-02 6.8672072875353540e-02  -2.1305456775695387e-02 9.7422935839318589e-02 6.3352196376474670e-02  -1.1666988615717503e-02 1.0922908867495326e-01 3.5514301358872416e-02  -1.1993360160999294e-02 1.0805835059132131e-01 3.5801672432473050e-02  -1.1828414591735229e-02 1.0609372088621204e-01 3.7659517477915135e-02  -1.2836191308316274e-02 1.0512622905135430e-01 3.9439175784142626e-02  -1.3060845183603967e-02 1.0711831458230579e-01 3.6526603635265269e-02  -1.3188172561502480e-02 1.0869732581892642e-01 3.6740643053292485e-02  -1.3632747996829295e-02 1.0414113576487630e-01 4.1043014169100535e-02  -1.3912677258639924e-02 1.0611160397383804e-01 3.7140845999430454e-02  -1.4432198721324275e-02 1.0797148390821536e-01 3.7823760638876269e-02  -1.4374267226137917e-02 1.0311217095762427e-01 4.2603885077166621e-02  -1.4716094290015807e-02 1.0501364613820346e-01 3.7761221809926047e-02  -1.5616672718737585e-02 1.0710453993844792e-01 3.8899263377734750e-02  -1.5149712231392800e-02 1.0203812613636379e-01 4.4223562824389599e-02  -1.5561548196472184e-02 1.0383670561868580e-01 3.8463949092381537e-02  -1.6868248239704429e-02 1.0613669659814044e-01 4.0065905297709467e-02  -1.6013325408613929e-02 1.0093262205014648e-01 4.5972287994365743e-02  -1.6504940175482336e-02 1.0261441112872627e-01 3.9295612936697880e-02  -1.8269051498916160e-02 1.0511200225805747e-01 4.1395065986203988e-02  -1.6998234825012757e-02 9.9807304009095488e-02 4.7900139144176720e-02  -1.7589097014341366e-02 1.0139457981108173e-01 4.0282054950724726e-02  -1.9872678825803427e-02 1.0404964870096306e-01 4.2929389142869236e-02  -1.3993990621337105e-02 1.1098345431285124e-01 4.1314572125894101e-02  -1.2208410922150338e-02 1.4384888188330650e-01 2.8657229791937015e-02  -1.1538109918840016e-02 1.3987938922553292e-01 2.9327486511472444e-02  -1.399633755