<?xml version="1.0"?>
<VTKFile type="UnstructuredGrid"  version="0.1"  >
<UnstructuredGrid>
<Piece  NumberOfPoints="974" NumberOfCells="4232">
<Points>
<DataArray  type="Float64"  NumberOfComponents="3"  format="ascii">1.172385935605329 1.170670877000794 2.905345123783204  1.271849439395478 1.174956311546243 2.973464673323903  1.18023292466334 1.232557268707721 3.038812381478023  1.165732663522265 1.174772031878601 3.071509572301723  1.254726696761689 1.115654816675656 3.002931065135053  1.15525607548159 1.109438733277689 2.930586268385722  1.151938330554966 1.116281270094662 3.104195701983873  1.238073336925504 1.05573301406014 3.032267133935827  1.138671316885248 1.047589816305495 2.955514927561357  1.138352532351596 1.057321335044054 3.137107759623058  1.221556397154211 0.995397371092731 3.061736026647288  1.122202713036928 0.9852790285018542 2.980528286379398  1.124551126598522 0.9980951454386839 3.170380361273938  1.204928437534281 0.9348238470391277 3.091480288163515  1.105580704640234 0.9226792131971665 3.00581103845043  1.110221675898035 0.9386383759090567 3.203906779182197  1.188002697624563 0.8741060088450991 3.121497408174275  1.08862903896784 0.8598994266924436 3.031432006441643  1.095156693015072 0.8790275479970618 3.237682918716423  1.1704895830192 0.8133061422657917 3.151712246620922  1.071009444133891 0.7970310107013453 3.057372222065397  1.516748129128759 1.111531396133201 2.986713686716622  1.65021948423543 1.053056546824254 2.944545165757263  1.662973070130487 1.14757113414584 3.081629205531259  1.65435839789803 1.093132811403241 3.122898075569503  1.638244017304601 0.9928302350018514 2.97968927883675  1.502333633397684 1.05249577850762 3.021445371123732  1.626472076539651 0.9323222279123783 3.014780014175114  1.488191213100017 0.99311148149533 3.056128678614226  1.646035053730907 1.038463161081098 3.164279356485928  1.474109248828635 0.9335150355269326 3.090918735960112  1.614737803818473 0.8716330051680996 3.049934647232845  1.637808040467981 0.9836659571352075 3.205762389705594  1.459965007975611 0.8737922748439684 3.125873615131454  1.602963109503658 0.8108857185462512 3.085196854114925  1.62955611482859 0.9287723024664158 3.247379927721296  1.445677574310834 0.8140168976815445 3.161017463835732  1.591082940571337 0.7501091579477785 3.120615704717455  1.621181193346621 0.873839730335281 3.289128049705395  1.431117702663647 0.7542209556897475 3.196303852823607  1.579007660223102 0.6893345063017109 3.156221858874864  1.61251617211723 0.8188535037580857 3.33095861629159  1.286745977136369 1.086958188607365 2.757468878113427  1.395986083816539 1.082896059300845 2.863073018215926  1.289256374512996 1.120918791944385 2.878719788752428  1.270494390578224 1.058953520010066 2.903314570088726  1.376398192961301 1.020700276886789 2.888902314631355  1.265347853682901 1.023077771204127 2.773944353579074  1.244122514814403 0.9588114759641211 2.7899227430327  1.357012186883102 0.9580266690392925 2.914469953403314  1.252054802291811 0.9964219969520027 2.927626468902266  1.222874660258519 0.8942609243888213 2.80580396452046  1.33763998089659 0.8951126037590899 2.940065096603997  1.233643790355381 0.9335725884726367 2.951989535038719  1.201522806626513 0.8295192493074467 2.821798665794628  1.318179463518638 0.8320376505043345 2.96582395821567  1.215109789133948 0.8705193926276555 2.976551210067986  1.180013349519232 0.7646734985268326 2.838032487605521  1.298545809113206 0.7688828484729173 2.991813459717194  1.196312769206272 0.8073398296437484 3.001392402004728  1.158267098621772 0.699844408859239 2.854633844850459  1.278667023606723 0.705725832451539 3.018100799685278  1.177085167294428 0.7441203298128893 3.026539325597577  1.531970281855134 1.263602953579559 3.192798834920179  1.673765618126753 1.230583013861255 3.183299116454844  1.669401492717014 1.338317257291405 3.29055867394322  1.522508176276703 1.214278310423969 3.238046623903276  1.172202451008214 1.127480651587068 2.781500017361628  1.153451271066647 1.063477345425582 2.798059431012324  1.135085626939196 0.9989288070939482 2.814067615563263  1.116765703642842 0.9340110085630203 2.830015357132446  1.098288682422198 0.8688509976841374 2.846123939664991  1.07951593528997 0.8035465183575506 2.862504660012583  1.060273144815015 0.7382247515245516 2.879284542880646  1.036081449490681 1.222281990555086 2.942837426191763  1.022140756920883 1.160764614550337 2.96871544789733  1.009066296418526 1.098319078310881 2.994376536474536  0.9961742595414551 1.035314683337766 3.020209418403755  0.9830842468126147 0.9719591241478682 3.046450929654814  0.9694362798068319 0.9083102809077368 3.073058284414779  0.9548254038871711 0.844371193236198 3.099992133451416  0.6490735723838692 1.289625019633357 2.905879784811626  0.6758294360182188 1.256341444520624 2.816185972298205  0.7797093697677291 1.277231763641497 2.937667937376496  0.7673265756539369 1.214473200879135 2.964973304307994  0.6656740377279082 1.189449208932941 2.835268664969684  0.6387078356063741 1.224498380400067 2.931755754442487  0.7559883909303988 1.150674837223758 2.992229292349619  0.6565107261026679 1.121530554028664 2.853985889081917  0.6293832850860791 1.158390928313151 2.95759216757369  0.7449230395583013 1.086163105698395 3.019841939148093  0.6474596968289449 1.052776245127513 2.872988116693045  0.6202872794507041 1.091457137700967 2.983792168614884  0.7335836555912052 1.021064915480851 3.048012124321384  0.6381720527403786 0.983287612673666 2.892344143575147  0.6109724446272637 1.023784147636504 3.010520751402474  0.7214725314941223 0.9553120736354404 3.076646977129019  0.628344734711538 0.9131241076638522 2.912106741639244  0.6009510476720531 0.9552092699966745 3.037698607482866  0.7081847870632793 0.8889460673533383 3.105835885996824  0.6176156091608462 0.8422244027320136 2.932283673552643  0.5897748642990638 0.8855933603956068 3.065493158743963  1.514210999790892 1.037364388431739 2.847380302184158  1.495359642081493 0.9749951952533851 2.876240288398205  1.476622054677772 0.912234696688124 2.904861708889612  1.457864105420991 0.8492818828793789 2.933521012137318  1.439056392366691 0.786222839751338 2.962310075926135  1.420144493966311 0.7231356115891758 2.991299241804172  1.401084967718234 0.6601071548548272 3.020563703102035  1.755646081663905 0.9587160493141154 2.797408756054502  1.861767098077735 0.9910081814072063 2.889430580841764  1.751697228430315 1.01443882057954 2.900832060568987  1.742071967196925 0.952580781508908 2.934218915314679  1.854673293574002 0.928581353522286 2.922446844265931  1.744859756435065 0.8913641219712023 2.821623424404122  1.732688940853797 0.8904763948034083 2.967542839357904  1.847754731472732 0.866033718929292 2.955391509816  1.734252259105655 0.8238904118756769 2.845722047640455  1.723371574712183 0.8282381169706092 3.000891485979318  1.840899617722327 0.8034052452047229 2.988340843475021  1.723703291858754 0.7563342917838058 2.869802813283379  1.714036472096873 0.7659415825740354 3.034312347573151  1.83403847713837 0.7407373873169014 3.021343038920642  1.713142211378126 0.6887402688852133 2.893931119777625  1.704617205399268 0.7036380099532707 3.06783685225408  1.82711713735584 0.6780667868117738 3.054425029377811  1.702506726215883 0.6211454833178877 2.918138978283002  1.695039098208326 0.6413658064938959 3.10147475549689  1.820064482137788 0.6154308612145835 3.087606127649036  1.691723976344372 0.5535779482942631 2.942415559683084  1.050455865240103 1.168892313541996 2.807486224506995  1.034344601790945 1.104782271764936 2.825354806727028  1.018841284119608 1.039983468511589 2.842666747051185  1.003405080395515 0.9747035688983916 2.859986180582521  0.9877706794470464 0.9090844185656158 2.877522324028039  0.9717226307964868 0.8432439020166315 2.89538486454699  0.9550354668392473 0.7773165235199224 2.913677926970816  1.64343095647507 0.9951097813165812 2.827922574595999  1.630201609286912 0.9299368141509647 2.855178583198048  1.617112571798127 0.8644633637686665 2.882327563364925  1.604041487900657 0.7988328609898835 2.909478421817278  1.590935582809335 0.7331347633677705 2.936713563563947  1.577754210564466 0.6674221160636915 2.964085959297995  1.564425270512116 0.6017303707099163 2.991600163719525  0.5494394410031116 1.28219802596427 2.836981305315341  0.5412570544575277 1.214584022829172 2.859561813607384  0.5340793227636405 1.145842984183235 2.88220018370462  0.5270259213992756 1.07621336311553 2.905153456092695  0.5197832783000711 1.005686368764735 2.928448872843575  0.5120982346254184 0.9341638271336121 2.952076181134532  0.5035291497475906 0.8613780634437921 2.976163967105585  0.548942844589221 1.244761493340314 2.711438342737354  0.5425549433298897 1.174232903853278 2.725296047309754  0.5369542379088409 1.102824901884726 2.739029779056144  0.5313201437898907 1.030693286753529 2.753035586943176  0.5254204680819219 0.9577598800437219 2.767201092782225  0.519007565998501 0.8839345651877524 2.781507503930507  0.5119450526453261 0.809026124989115 2.795994654740556  1.048270621048583 1.129972740848121 2.55755577397371  1.054831053723138 1.12720904357844 2.429158330535988  1.155430473753206 1.094612100618359 2.527103438546151  1.133293880402022 1.029680896930252 2.52955064555073  1.036025700979586 1.06179023369951 2.4262810395489  1.029575227672266 1.064316952946096 2.560321117475585  1.111302845582198 0.9646298492666225 2.531214677296662  1.017616458789072 0.9962822438485968 2.422534748124882  1.011254960384294 0.9983956628016863 2.562229518774654  1.089202327607151 0.8994719770736057 2.532650561667712  0.999151765600278 0.9306962737075439 2.418523569257556  0.9928811047009742 0.9322755658298213 2.56391618112737  1.066963668864303 0.8341977146872206 2.534090434438818  0.9804201658846469 0.865067226962994 2.414572586674182  0.9743180997452696 0.8659769755473667 2.565637302684532  1.044577232271364 0.7688447737086868 2.535730310307505  0.9614182644318263 0.7994044667454825 2.410811268133811  0.9554696182547719 0.7995438752377002 2.567569221910833  1.0221
[...]
<PointData  Vectors="f_16"> 
<DataArray  type="Float64"  Name="f_16"  NumberOfComponents="3" format="ascii">4.5207011883437211e-02 1.5114149785625175e-02 -3.5644164192252178e-02  4.3811022675488753e-02 1.4396532074950702e-02 -3.0696687416141271e-02  4.5421160277177804e-02 1.8000727142420982e-02 -2.9933586560096297e-02  4.3708714071274718e-02 1.9945603681500987e-02 -3.1147685132582072e-02  4.2167154488357644e-02 1.6575394851940473e-02 -3.1666264061617669e-02  4.3739710792301392e-02 1.7581302506265613e-02 -3.6103907778520690e-02  4.1917481640530642e-02 2.1499370552600466e-02 -3.2021749181642647e-02  4.0423717540055436e-02 1.8375492477644403e-02 -3.2319608943222757e-02  4.2139593867283429e-02 1.9597550820391788e-02 -3.6285298150776364e-02  4.0030943714029606e-02 2.2749065223627383e-02 -3.2661614626751954e-02  3.8575000477800034e-02 1.9845949863325437e-02 -3.2746266187433405e-02  4.0406102270399515e-02 2.1233636708738981e-02 -3.6289550441572851e-02  3.8032286904757712e-02 2.3724903361684056e-02 -3.3156954963832648e-02  3.6601187288380951e-02 2.1020915074960258e-02 -3.3025157776529139e-02  3.8538340703801945e-02 2.2541151482868924e-02 -3.6164380400726878e-02  3.5899883534648472e-02 2.4430737288007563e-02 -3.3585122471965906e-02  3.4480149167860498e-02 2.1918703826250965e-02 -3.3217667225344888e-02  3.6526382047016172e-02 2.3546727980093055e-02 -3.5950081763966454e-02  3.3602775782980099e-02 2.4841304079987147e-02 -3.3978645809284724e-02  3.2181040952187580e-02 2.2552989494186802e-02 -3.3374725753077379e-02  3.4349022793149102e-02 2.4255093649839878e-02 -3.5673675608876146e-02  4.0225367371072324e-02 8.5335596062136379e-03 -2.4398979622048938e-02  3.8353124181127775e-02 4.2344785514605169e-03 -2.2514812931821584e-02  3.8969699486370385e-02 5.8209773814602694e-03 -1.7275654309553901e-02  3.6502699091076438e-02 6.9762521248478947e-03 -1.8586866310912414e-02  3.6043920869023492e-02 6.0395000355648997e-03 -2.3611004812067533e-02  3.8143507024558224e-02 1.0397751626630574e-02 -2.5580529957250547e-02  3.3785832324120801e-02 7.5704772453422916e-03 -2.4249290819381208e-02  3.6060534669476473e-02 1.1965360562950013e-02 -2.6376060195059781e-02  3.4160044910322859e-02 8.0642856450898002e-03 -1.9556779369030924e-02  3.3911018043610380e-02 1.3262845747502222e-02 -2.6920503944110805e-02  3.1484820173779994e-02 8.8197954354968817e-03 -2.4636285680072034e-02  3.1834543891916062e-02 9.0065451491928329e-03 -2.0287570242264640e-02  3.1659071461691911e-02 1.4297620847597614e-02 -2.7330694524115691e-02  2.9106974271385647e-02 9.8103207437817991e-03 -2.4917638982900503e-02  2.9463782349620993e-02 9.7653335265264693e-03 -2.0943930591849701e-02  2.9267973378985256e-02 1.5078725055886118e-02 -2.7695537681796216e-02  2.6606911462764164e-02 1.0547860677661577e-02 -2.5180753940220294e-02  2.6982942000750285e-02 1.0318418660251464e-02 -2.1596633425192358e-02  2.6701192798661979e-02 1.5624974264391142e-02 -2.8076889207006430e-02  2.3952245353061084e-02 1.1029198599304195e-02 -2.5491017055184403e-02  2.4329310933912572e-02 1.0633340021643116e-02 -2.2326092660375090e-02  4.3257277119528162e-02 8.4733780032967745e-03 -3.8913308203251187e-02  4.1539021268339797e-02 9.0815260395550827e-03 -3.2005691903966377e-02  4.3173248933302828e-02 1.1875318016105210e-02 -3.4167327401597010e-02  4.1719465633488065e-02 1.4418168828783008e-02 -3.4537475146233960e-02  4.0015285254351329e-02 1.1577259029844671e-02 -3.2504839715557017e-02  4.2127018459234077e-02 1.1184319738237391e-02 -3.8470566758661846e-02  4.0806734544611624e-02 1.3408067106910481e-02 -3.7918161864572801e-02  3.8330098355766340e-02 1.3610633198022918e-02 -3.2678309572360224e-02  4.0100099655767253e-02 1.6427661076714492e-02 -3.4664526111369019e-02  3.9312555233179593e-02 1.5227175481798423e-02 -3.7226019845848571e-02  3.6503413518696563e-02 1.5274221627911285e-02 -3.2647012732777043e-02  3.8343876562002638e-02 1.8075566063899536e-02 -3.4608234378904479e-02  3.7657634033169331e-02 1.6701034458050695e-02 -3.6415914768399144e-02  3.4530919357803676e-02 1.6618064163665663e-02 -3.2489532566469304e-02  3.6440089266396483e-02 1.9404837858572232e-02 -3.4423350266900923e-02  3.5833688730329570e-02 1.7876550426328672e-02 -3.5509724425892966e-02  3.2396206028823732e-02 1.7680000315295173e-02 -3.2262486937039175e-02  3.4371462970216038e-02 2.0442213113480146e-02 -3.4154798262194003e-02  3.3824424164940949e-02 1.8772232614207848e-02 -3.4519680890416883e-02  3.0078633313436860e-02 1.8483146194971368e-02 -3.1994612365923977e-02  3.2122603727943802e-02 2.1214768692084045e-02 -3.3835009375741992e-02  4.1380950693256861e-02 1.1306673842522376e-02 -1.6178219367755767e-02  3.9523063223446217e-02 6.8760789481945635e-03 -1.3468782213321328e-02  4.0444394698124823e-02 8.7285630023365129e-03 -9.9675573484549040e-03  3.9146223658158119e-02 1.2211826412598933e-02 -1.7660282124960628e-02  4.5065189862217712e-02 1.1612712795263630e-02 -4.0754654571447085e-02  4.3870716655447589e-02 1.4279938063535180e-02 -4.0314530095578803e-02  4.2503196054104707e-02 1.6448446403374312e-02 -3.9730860810027024e-02  4.0979925340116310e-02 1.8217407358004704e-02 -3.9015313160295363e-02  3.9307310459529621e-02 1.9643910368214751e-02 -3.8183008167837047e-02  3.7487168394974957e-02 2.0757747397318938e-02 -3.7251489608500624e-02  3.5519556647295059e-02 2.1563660630823222e-02 -3.6234457144957793e-02  4.7440367923374707e-02 1.9159271597635127e-02 -3.6790631269847933e-02  4.5921852934241426e-02 2.1528209685229456e-02 -3.7365442963838105e-02  4.4266267047795599e-02 2.3406144220667474e-02 -3.7693556397687518e-02  4.2471024418802170e-02 2.4909186092715377e-02 -3.7815846245817832e-02  4.0553196464425560e-02 2.6087544783339939e-02 -3.7790119894717526e-02  3.8524722929147937e-02 2.6959728951098751e-02 -3.7665268967385979e-02  3.6403943707155252e-02 2.7517187175127401e-02 -3.7470227362616605e-02  5.4452552156095513e-02 2.7374572575739810e-02 -4.4104929543198911e-02  5.3977979378719385e-02 2.3521428706848160e-02 -4.8164396216109948e-02  5.1846671020653289e-02 2.5079230181808260e-02 -4.0891444025614058e-02  5.0249355081596274e-02 2.7478211008941291e-02 -4.1497010448207583e-02  5.2254540143693587e-02 2.6235416392040686e-02 -4.7684685770415437e-02  5.2608795947118661e-02 2.9852210957875165e-02 -4.4458576871187046e-02  4.8423930575229583e-02 2.9381157952736766e-02 -4.1794859081596095e-02  5.0339550301649542e-02 2.8405659760412722e-02 -4.7059129189692163e-02  5.0561569102037331e-02 3.1806509760952867e-02 -4.4563687368012035e-02  4.6446431731577698e-02 3.0906930823104178e-02 -4.1875482231271501e-02  4.8277136915945894e-02 3.0154193444513467e-02 -4.6255199460898976e-02  4.8370990411090699e-02 3.3387570941364346e-02 -4.4449547913516796e-02  4.4362653419443190e-02 3.2105665357485692e-02 -4.1813297714247882e-02  4.6117330429864892e-02 3.1550893598363605e-02 -4.5302236047986978e-02  4.6084927678654769e-02 3.4641304316466552e-02 -4.4184335430410226e-02  4.2207482306631856e-02 3.2991970108420955e-02 -4.1665140825418931e-02  4.3908766166645644e-02 3.2633310787726903e-02 -4.4220285871623695e-02  4.3746499727860794e-02 3.5583395659736464e-02 -4.3820587105358154e-02  4.0011253000488203e-02 3.3551933979930088e-02 -4.1462368263807697e-02  4.1705196214732121e-02 3.3413222189667115e-02 -4.3016112399627417e-02  4.1404646748902790e-02 3.6212084593317782e-02 -4.3393243520195919e-02  3.9800329193401700e-02 6.0386939310277379e-03 -2.9387152413487244e-02  3.8071389708187346e-02 8.4743982664834128e-03 -3.0029215254175848e-02  3.6213247654675360e-02 1.0476013926437053e-02 -3.0211560849033366e-02  3.4235036624033800e-02 1.2098355810211996e-02 -3.0169022505672924e-02  3.2126484433242050e-02 1.3399661535557507e-02 -3.0019576828024475e-02  2.9869124113866590e-02 1.4421114958504741e-02 -2.9831784413330509e-02  2.7436733058475462e-02 1.5194507508041003e-02 -2.9655298514739411e-02  3.6815523462365496e-02 -1.2363171352630551e-03 -2.5132888899268069e-02  3.6018692369064770e-02 -2.9535878377194217e-03 -1.8854217284963972e-02  3.7232565541481397e-02 5.3157766083849166e-04 -2.1326464393921080e-02  3.4803453082744511e-02 2.3408232636653280e-03 -2.2272494958714289e-02  3.3442689204732701e-02 -1.2624530176808659e-03 -1.9754154518557391e-02  3.4641271648802159e-02 9.4527147248640929e-04 -2.5450341625673441e-02  3.2454226606310740e-02 3.8602351731333016e-03 -2.2770965413642555e-02  3.0983893793726739e-02 1.3171102193408789e-04 -2.0220423033571192e-02  3.2482995552081909e-02 2.6023084156732612e-03 -2.5421109531945537e-02  3.0096662059695068e-02 5.0867638953532223e-03 -2.3028120976596726e-02  2.8549178615532026e-02 1.2570232567823694e-03 -2.0483528083170034e-02  3.0289717566573483e-02 3.8867725420134451e-03 -2.5225038309358645e-02  2.7676751395970534e-02 6.0439923288436283e-03 -2.3185822840891344e-02  2.6068610612365661e-02 2.1330442103913894e-03 -2.0664441698159425e-02  2.8024326539592279e-02 4.8710008248276796e-03 -2.4938591135803281e-02  2.5154132964640724e-02 6.7458462724249556e-03 -2.3326451718526292e-02  2.3492095328456624e-02 2.7651854143356611e-03 -2.0840748470124019e-02  2.5660607814704587e-02 5.5870466901904690e-03 -2.4612345014737545e-02  2.2501502053702799e-02 7.1938886608960244e-03 -2.3500414802416443e-02  2.0778394367010438e-02 3.1453955102757896e-03 -2.1064148417080930e-02  2.3178672540676674e-02 6.0616201843540982e-03 -2.4274770784809316e-02  4.7096375120186260e-02 1.4937759470744195e-02 -4.2321637046550384e-02  4.5791481530343930e-02 1.7620428555371468e-02 -4.1939182010405689e-02  4.4334502542004370e-02 1.9778499457033895e-02 -4.1374225268980484e-02  4.2732738178719060e-02 2.1524522328200867e-02 -4.0679008231708162e-02  4.0999492483812315e-02 2.2920913868990554e-02 -3.9868373027745888e-02  3.9146163755902970e-02 2.3997833806840254e-02 -3.8955331856664589e-02  3.7183383387651758e-02 2.4758619295295797e-02 -3.7949170814229619e-02  3.8178807648188290e-02 2.2687340972238124e-03 -2.6914236230329413e-02  3.6128581583348217e-02 4.6066316038980530e-03 -2.7381767146445302e-02  3.4037722963327022e-02 6.3989898226169744e-03 -2.7446884903567503e-02  3.1881701393767975e-02 7.8031603537210047e-03 -2.7311555006356236e-02  2.9632096057469724e-02 8.8971849475061072e-03 -2.7080326301156945e-02  2.7266663222321921e-02 9.7206036720721666e-03 -2.6809364199113096e-02  2.4774251991868841e-02 1.0290515939436227e-02 -2.6533959897746016e-02  5.6658728139925826e-02 2.7707935240817567e-02 -4.8611290907117188e-02  5.4573597830873399e-02 3.0347064501022796e-02 -4.8436623666156448e-02  5.2301816877294224e-02 3.2469277644763282e-02 -4.7995461472793446e-02  4.9899606970340564e-02 3.4188086169987329e-02 -4.7353645426738797e-02  4.7414538708319173e-02 3.5563925175637029e-02 -4.6561882544551528e-02  4.4893692442037489e-02 3.6626444863450014e-02 -4.5652119306786983e-02  4.2392297363316143e-02 3.7393100187362908e-02 -4.4646900748941863e-02  5.6646313106770860e-02 2.2682789980129646e-02 -5.4877192242594020e-02  5.4598016721428749e-02 2.5449157728777084e-02 -5.3368323327568030e-02  5.2403965339025076e-02 2.7615692239210194e-02 -5.1733797902886777e-02  5.0105548840227235e-02 2.9366841654240684e-02 -4.9980969713290122e-02  4.7743284411281076e-02 3.0771973668648821e-02 -4.8100056018500065e-02  4.5361600942214489e-02 3.1872867605209465e-02 -4.6069375360689918e-02  4.3018644424354595e-02 3.2689687104359266e-02 -4.3864357344809875e-02  4.7523158858295847e-02 5.1670007907430367e-03 -5.3261533444160722e-02  4.7814742178134514e-02 -1.1511701700061463e-03 -5.8908437713369524e-02  4.5798465101547399e-02 2.2012742482734548e-03 -5.1796565208391557e-02  4.5166975171436398e-02 4.6670171658254002e-03 -4.9444785062643062e-02  4.7219501842127060e-02 9.3093851641295132e-04 -5.5721208304458106e-02  4.6725366968529455e-02 7.6160959798286720e-03 -5.0912600629606966e-02  4.4313440178482530e-02 6.6477945049150224e-03 -4.7166114291574204e-02  4.6425412352066757e-02 2.5808133034858926e-03 -5.2633623706979243e-02  4.5723389245278710e-02 9.5961434348241659e-03 -4.8645476651130483e-02  4.3279345222625352e-02 8.2406384261789461e-03 -4.4877473060077069e-02  4.5473338209600207e-02 3.8732776791898745e-03 -4.9590634321283446e-02  4.4570196050341022e-02 1.1187784169882961e-02 -4.6367190933566553e-02  4.2098159720386746e-02 9.4975513671268549e-03 -4.2542579675682944e-02  4.4404529838531583e-02 4.8591139049382840e-03 -4.6531120246963709e-02  4.3290783676168128e-02 1.2441349869328377e-02 -4.4025365881558122e-02  4.0785287846144339e-02 1.0453221312081372e-02 -4.0132217809964205e-02  4.3253935492432276e-02 5.5615243030084612e-03 -4.3401129641059251e-02  4.1910647661418006e-02 1.3387280880297203e-02 -4.1581430717576133e-02  3.9350477587397931e-02 1.1105854937631941e-02 -3.7624395538184453e-02  4.2053208041558342e-02 5.9856075962889778e-03 -4.0161258931638542e-02  4.0451371288985946e-02 1.4039203535555498e-02 -3.9001208432132534e-02  3.8760819351219028e-02 -3.9748342558168113e-03 -3.5972734748953739e-02  3.9543345436554571e-02 -7.8912829322977437e-03 -4.1345502199654494e-02  3.7535596419264329e-02 -7.4728633830680275e-03 -3.3633084137877078e-02  3.6176031287415034e-02 -5.1141864260778195e-03 -3.2300201509634023e-02  3.8654258196739379e-02 -5.6804049632249469e-03 -3.9029818858773088e-02  3.7427353797406207e-02 -1.5034781644525836e-03 -3.4567237150918854e-02  3.4745461827989078e-02 -3.3289646129597973e-03 -3.0918695179106424e-02  3.7647224304708023e-02 -4.0345780598995502e-03 -3.6785621771700895e-02  3.6015956997753527e-02 3.5630636013763003e-04 -3.3124908558036160e-02  3.3235480894424886e-02 -1.9950941806116326e-03 -2.9485538577647082e-02  3.6519699465602282e-02 -2.8543346740730544e-03 -3.4558290161155733e-02  3.4504567608043650e-02 1.7502375658594077e-03 -3.1638815427585537e-02  3.1638814333744117e-02 -1.0307186031044970e-03 -2.8007899020153496e-02  3.5279885961468235e-02 -2.0474524321591708e-03 -3.2322598933993009e-02  3.2887342160334128e-02 2.7722622890151965e-03 -3.0107000420591678e-02  2.9949294543576383e-02 -3.7508366349207298e-04 -2.6493680827492781e-02  3.3938085846021600e-02 -1.5464906659965695e-03 -3.0060302489705665e-02  3.1165327541944364e-02 3.4909902313157914e-03 -2.8531420184896659e-02  2.8161504204260463e-02 1.6397037775942733e-05 -2.4949542920222202e-02  3.2514312175317903e-02 -1.3128834456610065e-03 -2.7763111763479963e-02  2.9337427808048166e-02 3.9525935615633192e-03 -2.6911437284368196e-02  5.6741663326780330e-02 3.1497580082447414e-02 -4.2923166670961688e-02  5.4626685029992336e-02 3.3691085837367823e-02 -4.3791568438345641e-02  5.2332527400975298e-02 3.5477446849563991e-02 -4.4279729168727633e-02  4.9902536528286787e-02 3.6916272203690259e-02 -4.4528240447671903e-02  4.7387429470862205e-02 3.8040016658405992e-02 -4.4632858185263899e-02  4.4832465147061448e-02 3.8851900892340259e-02 -4.4673620723831284e-02  4.2286835985235978e-02 3.9329330090519796e-02 -4.4702872439054631e-02  4.5350932698945905e-02 7.2112281517644457e-03 -4.6306587070969206e-02  4.4441691152749749e-02 9.8867963401227874e-03 -4.4858043123483703e-02  4.3335118013520725e-02 1.2057155735166632e-02 -4.3379399479397875e-02  4.2055170330883594e-02 1.3819901025650776e-02 -4.1841375226691790e-02  4.0620109759884206e-02 1.5234873937129434e-02 -4.0224549379253328e-02  3.9040538736564386e-02 1.6336509719632394e-02 -3.8518052301175186e-02  3.7328292361045984e-02 1.7129314587337845e-02 -3.6718793812606058e-02  5.7256489882583833e-02 3.4648292602159514e-02 -3.6838309309935285e-02  5.4315398521769656e-02 3.1426019952722990e-02 -3.3746409968125245e-02  5.6873649689728675e-02 3.5758975924057357e-02 -3.0362170373251701e-02  5.4988997257897625e-02 3.6535982151930775e-02 -3.2438917023547273e-02  5.2544398135627404e-02 3.2863412110165580e-02 -3.5516798933078624e-02  5.5191914398019605e-02 3.6093243812465071e-02 -3.8508532078488304e-02  5.0607948020815835e-02 3.4040849963092694e-02 -3.6869994633217981e-02  5.2954823654226102e-02 3.7333736831025303e-02 -3.9776469450545429e-02  5.2978810725368350e-02 3.7186826113638952e-02 -3.4227152246194950e-02  4.8549372342679177e-02 3.4965750698341805e-02 -3.7969392858844063e-02  5.0598802542414084e-02 3.8308594893978115e-02 -4.0788214481358914e-02  5.0878350347547570e-02 3.7643822493648102e-02 -3.5790192059425359e-02  4.6405052489417668e-02 3.5628965730155095e-02 -3.8938943101375835e-02  4.8167562955720319e-02 3.9006087978247839e-02 -4.1674686535772713e-02  4.8717153978656551e-02 3.7876873454132598e-02 -3.7226727750555987e-02  4.4202376202709080e-02 3.6005112758670403e-02 -3.9869615846370603e-02  4.5693119839354063e-02 3.9402964716887187e-02 -4.2533510839597902e-02  4.6523930508330383e-02 3.7847259540010239e-02 -3.8626132695598767e-02  4.1970947221903594e-02 3.6055786956153427e-02 -4.0840738411538145e-02  4.3211648391670909e-02 3.9441069648453196e-02 -4.3463785778614962e-02  4.4300577588230972e-02 3.7511356265825947e-02 -4.0079319789442312e-02  4.1428779297152135e-02 6.0110141262469472e-03 -3.6354239179643609e-02  4.0289463687640630e-02 8.7951668271396000e-03 -3.6132780465781875e-02  3.8899549485337991e-02 1.1055881588366285e-02 -3.5661981733020862e-02  3.7337697145222420e-02 1.2902677526240058e-02 -3.5032860703848159e-02  3.5617397871227793e-02 1.4405119257577020e-02 -3.4298963430708103e-02  3.3721743043881952e-02 1.5623038904809136e-02 -3.3495832690721421e-02  3.1660510457106272e-02 1.6610132903079923e-02 -3.2622981117547648e-02  5.0321497757259151e-02 -5.3189679942597917e-03 -6.6880144716632645e-02  4.9816207226300951e-02 1.6004679712294972e-03 -6.0791108455188328e-02  4.9006294849327205e-02 3.7104384265272514e-03 -5.7539979233437177e-02  4.9668490951294803e-02 -3.7900356624216360e-03 -6.2851456993489652e-02  4.8026797994820021e-02 5.3878817180795600e-03 -5.4402610039344504e-02  4.8838252867614576e-02 -2.6680024260087028e-03 -5.9036950643530914e-02  4.6918431777795776e-02 6.7143686041647686e-03 -5.1301314452391313e-02  4.7899532957282574e-02 -1.8368196838134119e-03 -5.5308072100409889e-02  4.5717419792009335e-02 7.7374111149522903e-03 -4.8166585750538768e-02  4.6891782571349398e-02 -1.2521930467550586e-03 -5.1562798421913081e-02  4.4459906134595419e-02 8.4779969396765152e-03 -4.4934874443011669e-02  4.5852754595773773e-02 -9.0439688240974599e-04 -4.7718249410266783e-02  4.3188237875129661e-02 8.9541670416725706e-03 -4.1550444590065107e-02  4.4821470328496205e-02 -8.0789661217001260e-04 -4.3704716967364450e-02  5.9677970642308169e-02 2.7349296084024484e-02 -5.5907566957551315e-02  5.9691518545559930e-02 2.0870950215680983e-02 -6.2422199758128377e-02  5.7262435949684810e-02 2.3344363511539869e-02 -5.9557973087439139e-02  5.7070239782173397e-02 3.0169031296135337e-02 -5.4465429138752602e-02  5.4751343115589837e-02 2.5320054431658082e-02 -5.6760578496641109e-02  5.4362975638263943e-02 3.2406929632149244e-02 -5.2856528053157367e-02  5.2196628778968863e-02 2.6894161223244801e-02 -5.3924133517725403e-02  5.1581283375304619e-02 3.4224198342293483e-02 -5.1146675510767056e-02  4.9624032425638086e-02 2.8130444002341892e-02 -5.0973373706004924e-02  4.8757371751384039e-02 3.5688142537913053e-02 -4.9336702111304399e-02  4.7063589458582439e-02 2.9079326440084919e-02 -4.7830998010630621e-02  4.5927716374488600e-02 3.6837069741567328e-02 -4.7403875530323103e-02  4.4545523063893908e-02 2.9776245557452952e-02 -4.4410708911251942e-02  4.3126787024487148e-02 3.7700303397875314e-02 -4.5317701605252614e-02  3.7255715409893586e-02 -4.3710486887370593e-03 -2.9504323249355105e-02  3.8376981820899207e-02 -6.1370337676410695e-04 -3.1551383007747853e-02  3.6692118457066748e-02 1.8533475151968615e-03 -3.1032869173037943e-02  3.5475185847059408e-02 -2.0049789338085606e-03 -2.8932778204410849e-02  3.4951967092945235e-02 3.7318263325291797e-03 -3.0385748533633076e-02  3.3680086176574357e-02 -1.1262183672643824e-04 -2.8269542279189312e-02  3.3117178448098576e-02 5.1507408775048587e-03 -2.9602977813644120e-02  3.1833368946616890e-02 1.3186898909289654e-03 -2.7496402125610223e-02  3.1183643981480887e-02 6.2179745739628306e-03 -2.8724657954392521e-02  2.9907753413365459e-02 2.3890132456375721e-03 -2.6642