<?xml version="1.0"?>
<VTKFile type="UnstructuredGrid"  version="0.1"  >
<UnstructuredGrid>
<Piece  NumberOfPoints="976" NumberOfCells="4183">
<Points>
<DataArray  type="Float64"  NumberOfComponents="3"  format="ascii">2.858125694931744 0.7787426506851316 2.442961464369869  2.963063278310071 0.8169307491979478 2.550187827992524  2.827681957369455 0.8270366569795302 2.59530616257266  2.830939887914755 0.7633922310222097 2.620693068615734  2.967184406412554 0.7536532527812317 2.575043250206532  2.859381255298157 0.7105910858601894 2.46050292131041  2.860537065208665 0.642423536701038 2.47804200681329  2.97126272236869 0.6903666931986338 2.599909018250171  2.834157004271294 0.6997521312473609 2.646100088534189  2.861648255750915 0.5742494329518331 2.495591008799811  2.975313216414336 0.6270905724647515 2.62478029047094  2.83734611015741 0.636120335146735 2.671516582280536  2.840507104322675 0.5725023230352762 2.696956865799094  2.979330978031451 0.5638301820353243 2.649673029415124  2.862740431176698 0.5060776496117693 2.513172600847997  2.843644791486451 0.508898415517304 2.722435607124674  2.98331546865848 0.5005840192812452 2.674608906695161  2.86384239111935 0.4379107262353293 2.530808274720405  2.846782662563964 0.445299087345326 2.747950111248774  2.98731215662053 0.437337820780101 2.699594522703499  2.86500305820783 0.3697418230613608 2.548504498762467  3.189058439783921 0.8830925862354735 1.793900082481117  3.3142606313554 0.9372679605161209 1.767013047520003  3.33708198609435 0.8598671919176238 1.897419515054894  3.353860630786617 0.8000490214087879 1.868215688893548  3.326886269243581 0.8835241291884051 1.7273265249627  3.203154926007446 0.8275849301783598 1.752991397171334  3.217541030389753 0.7721337900158458 1.712153367742454  3.339741600199311 0.8299059078524669 1.68768981165186  3.370951653578412 0.7403721863140303 1.83905567629484  3.232006376825464 0.7167242886949898 1.67134206415306  3.352671766728385 0.7763625463078168 1.648084726849494  3.388131965719963 0.6807754363381339 1.809919375971748  3.246419382819593 0.6613442062635939 1.630531488738448  3.365560182820665 0.7228662505158847 1.608494684022497  3.405253650228363 0.6212201302551221 1.780799516093984  3.260657618847829 0.6059732275590226 1.589689605192857  3.378282880652548 0.6693874986227786 1.568900971892679  3.422161950442563 0.5616695285801988 1.751682329920147  3.274556187272446 0.5505614288421506 1.548738680831721  3.390658360093542 0.61588178263312 1.529290622839794  3.438638103037019 0.5020311716079512 1.722527115540903  3.212966949383933 0.8127546833757252 1.911102955931437  3.228864998101136 0.7496922443503884 1.882390415911973  3.245040954781259 0.6867119188633278 1.853697771317747  3.261254768339405 0.6237825431686096 1.825021772900609  3.277385975601128 0.5608715509762954 1.796352527272187  3.293330918047999 0.4979406489773587 1.767665040526241  3.309018620986266 0.4349023566297197 1.738897439696976  2.819532983981846 0.7510203846784462 2.299045264024552  2.958693894990739 0.7542017644347682 2.318349479270927  2.961964991001333 0.6840963499821017 2.330439206047895  2.818418269824494 0.6791470616055365 2.307078962651036  2.817152555007538 0.6072406644665352 2.315074573814912  2.965161591142708 0.613949258803663 2.342517032403511  2.815828821541729 0.5353223777714784 2.323075486925185  2.968329553912004 0.5437987927431049 2.354604234766437  2.814498335004849 0.4633973039350237 2.331110129220263  2.97147421830445 0.4736492078505039 2.366723493462759  2.813212679877937 0.3914617913296445 2.339199547991799  2.974609812471653 0.4034923637874118 2.378894879175665  2.812033664285642 0.3195117926540835 2.3473582023388  2.977790247030474 0.3332992434556866 2.391135831120317  3.210601879748049 0.835509733660429 2.514573363730032  3.34290255657225 0.839990637507529 2.471713522390202  3.309510379629804 0.8863836409368193 2.616154815527406  3.351598491880748 0.7782257343164107 2.489319065688067  3.220103168007693 0.7739816138681612 2.535717656657603  3.31579258608076 0.8280953931305725 2.639930694748617  3.360370550837416 0.7165227767869893 2.506912655726519  3.229750395807351 0.7125073936418924 2.556870242848818  3.322102618770432 0.7698559053450988 2.663701515376427  3.369159907701099 0.6548694261654322 2.524496668013365  3.239426685671219 0.6510644319093334 2.578021824333119  3.328411795279227 0.7116554172552569 2.687465679565256  3.377913921416762 0.5932542606257767 2.542080416337595  3.249068624167983 0.5896477483208531 2.599179601266837  3.334688177644538 0.6534862464869524 2.711227281879887  3.386569143991177 0.5316727873852849 2.559673668429884  3.258599008465749 0.5282475206830626 2.620353299402292  3.340883402761118 0.5953598670357796 2.734980830220038  3.395030249935756 0.4701132864376824 2.57727185836777  3.267870960946247 0.4668209942185569 2.641540849578023  3.346915821363121 0.5372907205274948 2.758713401790215  2.717672778169885 0.8468239850122303 1.812359868147136  2.813931084736506 0.8024155756251172 1.873159725957  2.7173950388668 0.7840785830204342 1.951957955041838  2.7099224132058 0.71251054370642 1.930090932536533  2.810194120925464 0.7345137931002147 1.841801268579219  2.709586898599095 0.7814827600566094 1.776657245622399  2.702217735795317 0.640986418232516 1.908201588400322  2.806267147253084 0.6666368052751563 1.810422517012704  2.701256366891849 0.7161722913268145 1.740961244265611  2.694438346563758 0.5694773521090389 1.88630427374108  2.802281770723967 0.5987721423441332 1.779023010799753  2.692856107060877 0.6508741592661382 1.70525078335433  2.686674703722257 0.4979696335958204 1.864415248274364  2.798309363792912 0.530907752540406 1.747614711451435  2.684470183386585 0.5855805044996142 1.669521378167941  2.679000083139988 0.42645135762756 1.842549622271566  2.794410830885222 0.4630392700789054 1.716206593090401  2.676163855159319 0.5202858265234001 1.633770873659907  2.671496940395584 0.3549009183220636 1.820724774325811  2.790630173248034 0.3951698812900066 1.684792090756558  2.668020093840463 0.4549770658280635 1.598013176772473  2.354592763310556 0.8120489881632926 2.50859234572882  2.475642093500838 0.79327994951004 2.462716157210723  2.496057106027939 0.8262040975745502 2.609958187827789  2.469694283821314 0.7219570476175342 2.474799843703841  2.347599326058753 0.7411137446534746 2.522001958754096  2.493622531639394 0.7584985289477879 2.631522307502063  2.463597069311143 0.6506397878137957 2.486845188736283  2.340473763226276 0.6701897359656723 2.535341307579788  2.491065887017456 0.6907858146842567 2.653065774828435  2.457444350799035 0.5793318800685987 2.498889269321873  2.33329694089687 0.5992791067605077 2.548672152054594  2.488464877550912 0.6230805735027891 2.674615521817998  2.45129789495412 0.5080351057564612 2.510960981745371  2.326127478844668 0.5283829836149809 2.562029448891714  2.485862443258697 0.5553888751178118 2.696195737618513  2.44520997303432 0.4367475484559734 2.523080205690379  2.319014282640048 0.4575025271591837 2.575438312799059  2.48330037883466 0.4877131253373376 2.717822794836547  2.439238782910142 0.365460020389566 2.535257078198982  2.311999300089314 0.3866401489002713 2.588920848044914  2.480838242611549 0.4200406837713216 2.739492532440343  2.954751162129228 0.7433431712537902 2.199231328866082  2.956839107014181 0.6709755048855416 2.201788887835689  2.95883020632018 0.5985538194381884 2.204298059466088  2.96078287107953 0.5261186823957009 2.206807888052017  2.962720771417548 0.4536719450725153 2.209349059065049  2.964673434453742 0.3812003792366415 2.211945278352128  2.966702342841288 0.3086754200457223 2.214608651190888  2.578068878657831 0.7653637302979251 2.272280012526093  2.545041159516503 0.7704319193362303 2.13549943142252  2.690543680123414 0.751379464624742 2.220485439503201  2.68438617355765 0.6777479170148142 2.221971434895048  2.535738627302239 0.6963808867523928 2.128578211821793  2.571103901049074 0.6919748825488947 2.27542084112469  2.563965092374952 0.6186101243197799 2.278494147645601  2.526254023622432 0.6223935120596634 2.121562383891432  2.678004256569701 0.6041347229932912 2.223382545576922  2.556751166676162 0.5452596105283742 2.281561672054019  2.516691806370852 0.5484384594010151 2.114535966450509  2.671547671771755 0.5305324346187632 2.224794477627696  2.54954229764046 0.4719142413908887 2.284659147025101  2.50714325615682 0.4744960803639795 2.107535084455835  2.665096884138012 0.4569316800611621 2.226237704909433  2.542411360041752 0.3985668802990283 2.287812065500259  2.497683421004962 0.4005488591515508 2.100588168935052  2.658725246226992 0.3833268475948926 2.227734537280566  2.535414214593139 0.3252155952497807 2.291048173673547  2.488365233379551 0.3265823968796098 2.093719433429616  2.65251916390095 0.3097071014381244 2.229306849606669  3.432360847684567 0.9174235050695879 1.833845900014113  3.44586502283105 0.8607898672496073 1.800679736144347  3.459525313232046 0.8043359635034214 1.767558413931948  3.473235377177798 0.7479837910042191 1.734465558328715  3.486895870078644 0.6917004580366625 1.701401150573461  3.500383523350034 0.6354785230893544 1.668383040785607  3.513529397549797 0.5792819202429877 1.635404497023367  2.586151116480378 0.7755881126516027 2.410417225261663  2.713987823013236 0.761102864562379 2.360782238382954  2.721075917796233 0.793818833612209 2.499783920739367  2.721266038116585 0.7256191710066779 2.518515516703259  2.71100455864695 0.6894766234030743 2.371454695653461  2.581589180597089 0.7039423404991865 2.421636659783864  2.707870040953207 0.61782906194317 2.382096896330188  2.576867492297058 0.6323030540208193 2.43282607552998  2.721367144965272 0.6574005954952653 2.537254664391979  2.572085316947951 0.5606739196389526 2.444017542431037  2.704673109908128 0.5461811889351305 2.392746466114025  2.721419712691867 0.5891821686320845 2.556009369789983  2.567308453670112 0.4890555276688969 2.455240850815187  2.701475212454823 0.4745390778714179 2.403431483117927  2.721459539671717 0.5209675098933229 2.574797103383625
[...]
<PointData  Vectors="f_16"> 
<DataArray  type="Float64"  Name="f_16"  NumberOfComponents="3" format="ascii">2.7978950937581668e-02 -3.2597999484239852e-02 -6.2228246647815172e-03  2.7158208122427783e-02 -3.5946589527489727e-02 2.3169007886913347e-04  2.8117813700363425e-02 -3.3019663914098947e-02 -1.4169799146044537e-03  2.5858634583866776e-02 -3.2377977567375829e-02 -2.8072769399743141e-03  2.5134064364620366e-02 -3.5386929102851343e-02 -1.3396225423701262e-03  2.6195523448534676e-02 -3.1362089276516791e-02 -7.3058383944432032e-03  2.4464876270987094e-02 -3.0403698971631317e-02 -8.0131306350214645e-03  2.3168803284763388e-02 -3.4879054615070813e-02 -2.4872651665996154e-03  2.3742100082322533e-02 -3.1789740738256606e-02 -3.8324742544290444e-03  2.2759684015778166e-02 -2.9701107029286203e-02 -8.5335954001585067e-03  2.1246976753627137e-02 -3.4475310619769987e-02 -3.4537642211159461e-03  2.1672488749731232e-02 -3.1298558785685326e-02 -4.6837371879838155e-03  1.9600526924090440e-02 -3.0952053691489869e-02 -5.5225375236890948e-03  1.9333398374557227e-02 -3.4218238821703939e-02 -4.4164483885539910e-03  2.1060263380703086e-02 -2.9252615835196019e-02 -8.9991089175833205e-03  1.7491605738466573e-02 -3.0780438509310410e-02 -6.4750844815619785e-03  1.7392478060383427e-02 -3.4146530483446284e-02 -5.5080766437998543e-03  1.9348738516881993e-02 -2.9041574160656568e-02 -9.5302190045606743e-03  1.5314357446333539e-02 -3.0819037859456503e-02 -7.6162081850828728e-03  1.5407555576494895e-02 -3.4313298521208804e-02 -6.8208949625017303e-03  1.7621097374438944e-02 -2.9066350825089210e-02 -1.0200106625607244e-02  2.9756861711813187e-02 -3.9967883360110819e-02 -3.3299780306520955e-02  2.8704311936236859e-02 -4.1186301443688005e-02 -3.4739171099680721e-02  2.7383878455638222e-02 -3.8994207792228661e-02 -2.4401760805780982e-02  2.7087963566707340e-02 -3.8048257915483101e-02 -2.1392204763352293e-02  2.9048283089073326e-02 -4.1534304056571276e-02 -3.0853107797201223e-02  3.0028156663431043e-02 -4.0357046540712184e-02 -2.9345661773058859e-02  3.0372935461937183e-02 -4.1061892417552967e-02 -2.6099565975784972e-02  2.9437521407739021e-02 -4.2177783154474006e-02 -2.7519290275904829e-02  2.6979236033748993e-02 -3.7734653910880843e-02 -1.8864975050447125e-02  3.0830455082882645e-02 -4.2108870650903046e-02 -2.3180606745666663e-02  2.9929734461503248e-02 -4.3123832647164358e-02 -2.4529589464073007e-02  2.7018629237094929e-02 -3.7897196997078234e-02 -1.6603105469078484e-02  3.1414284125608670e-02 -4.3485149613284743e-02 -2.0419526072634055e-02  3.0542985583767363e-02 -4.4378289017454151e-02 -2.1721242279817234e-02  2.7216197669894946e-02 -3.8441087449757015e-02 -1.4497208071009482e-02  3.2156377151954067e-02 -4.5172067852287265e-02 -1.7709317395352284e-02  3.1303297839135789e-02 -4.5945448591494027e-02 -1.8988849456009694e-02  2.7601024662195061e-02 -3.9306229419642770e-02 -1.2489700785745043e-02  3.3096585733190700e-02 -4.7153791996862558e-02 -1.4985621070859797e-02  3.2278045958609107e-02 -4.7847908300082106e-02 -1.6262481180960641e-02  2.8167075827188463e-02 -4.0442760854772254e-02 -1.0604512276546336e-02  2.8413885345452188e-02 -3.7767031812206045e-02 -2.3977632738915566e-02  2.8081615952370794e-02 -3.6852341654626822e-02 -2.0965014758249044e-02  2.7979016401603340e-02 -3.6700343528086689e-02 -1.8491707531503285e-02  2.8016081918743371e-02 -3.7032049066615780e-02 -1.6236560762032184e-02  2.8199908590512357e-02 -3.7731761026325500e-02 -1.4107720077312667e-02  2.8545269278379280e-02 -3.8718127709492060e-02 -1.2053932698862698e-02  2.8998657770636527e-02 -3.9921171417636937e-02 -1.0078645087053100e-02  2.8723507902154746e-02 -3.1591437820354569e-02 -1.2563951616591263e-02  2.7547080960718073e-02 -3.3778509707408033e-02 -8.7302493951742274e-03  2.6144798736227298e-02 -3.2282981248266493e-02 -9.3702233310279069e-03  2.7435533843090582e-02 -2.9852439629801445e-02 -1.2793341167778652e-02  2.6148588863846554e-02 -2.8635894226881474e-02 -1.2680774729232337e-02  2.4755445349946253e-02 -3.1243433987056729e-02 -9.6370839917583780e-03  2.4855336516177814e-02 -2.7812260574313828e-02 -1.2424625801148507e-02  2.3386956770131972e-02 -3.0565496825150123e-02 -9.7501576761290041e-03  2.3556589964591028e-02 -2.7319690574387795e-02 -1.2135643954107591e-02  2.2034534839049574e-02 -3.0197958089355884e-02 -9.8431853449092877e-03  2.2254696183608810e-02 -2.7114555730688016e-02 -1.1889837409785692e-02  2.0700783150060353e-02 -3.0106363431210512e-02 -1.0005765062089686e-02  2.0956803686538964e-02 -2.7168820317391939e-02 -1.1744683270284457e-02  1.9387477299941246e-02 -3.0262747616377816e-02 -1.0304118243002348e-02  2.5774912583947082e-02 -4.1350091849374902e-02 4.1700084621670947e-03  2.4943527169803487e-02 -4.3359662137101705e-02 4.5545332774666351e-03  2.5241665388638750e-02 -4.6060645258631204e-02 9.7462311463093216e-03  2.3360097178862310e-02 -4.2754371927692804e-02 2.6439670119663204e-03  2.4005945637921616e-02 -4.0966770443943007e-02 2.2973346594194087e-03  2.3448888897059261e-02 -4.6073600145545179e-02 7.7943604099722482e-03  2.1811010172586937e-02 -4.2270746493619317e-02 1.1716104120982963e-03  2.2285268195620614e-02 -4.0633539202432775e-02 8.8892096658196819e-04  2.1681694294790495e-02 -4.5940443880853367e-02 6.2388391993893804e-03  2.0305750470838737e-02 -4.1933420471363593e-02 -1.0254128778928980e-04  2.0605657974322046e-02 -4.0398095530556892e-02 -3.1688190261165065e-04  1.9943901024274385e-02 -4.5768111177789249e-02 4.8460043400569410e-03  1.8843205390002591e-02 -4.1765120581343559e-02 -1.3631475115775322e-03  1.8958564599729381e-02 -4.0300372398234967e-02 -1.5156370504177835e-03  1.8224693840972615e-02 -4.5629054396218900e-02 3.4284287959338313e-03  1.7423827708448861e-02 -4.1794995268955838e-02 -2.7584473981209787e-03  1.7334844143400759e-02 -4.0382887198793120e-02 -2.8566038028895947e-03  1.6509575586551910e-02 -4.5592135808163146e-02 1.8265891725195015e-03  1.6055886484525668e-02 -4.2060450903349415e-02 -4.4145073197157650e-03  1.5724857796974630e-02 -4.0681492276081699e-02 -4.4514975373025111e-03  1.4786544637563338e-02 -4.5725851225022811e-02 -1.0354832155154463e-04  3.3823207470497649e-02 -3.8841586799757653e-02 -3.9111735822927984e-02  3.2249428165040110e-02 -3.7105625475390439e-02 -3.2429109976217452e-02  3.2269421012194571e-02 -3.4892758676626827e-02 -3.0366499683536538e-02  3.2361451571284970e-02 -3.3772030564818721e-02 -2.7358976368052484e-02  3.2597015474030600e-02 -3.6641747720850174e-02 -2.8960931761310850e-02  3.4424197600842803e-02 -3.8953422253243025e-02 -3.5139272973395495e-02  3.2349611656872695e-02 -3.3349847616041754e-02 -2.4593437750463621e-02  3.2834154965020734e-02 -3.6826223642151178e-02 -2.5893144598771307e-02  3.4906488990341274e-02 -3.9549706482695166e-02 -3.1601216984517989e-02  3.2258351330630181e-02 -3.3427753078883592e-02 -2.1986740126805751e-02  3.3038576703411357e-02 -3.7472220847950093e-02 -2.3032942315882658e-02  3.5321502789091831e-02 -4.0546489784800223e-02 -2.8334720887771347e-02  3.2131994201396258e-02 -3.3892282819939439e-02 -1.9480604698531065e-02  3.3237865921980421e-02 -3.8483029980234063e-02 -2.0282992297746209e-02  3.5706006002310157e-02 -4.1879128609604792e-02 -2.5214106738767905e-02  3.1996343305026077e-02 -3.4673184056878706e-02 -1.7035836001941702e-02  3.3457445436196699e-02 -3.9805620261702035e-02 -1.7584218076751042e-02  3.6080151537462628e-02 -4.3508919841322484e-02 -2.2155992349128413e-02  3.1946401482609577e-02 -3.5717675761516840e-02 -1.4644868342326997e-02  3.3757839532046405e-02 -4.1387826913926708e-02 -1.4904204050983498e-02  3.6476807796683226e-02 -4.5406139861362632e-02 -1.9134937987877340e-02  3.1851864381220479e-02 -2.1373429603494542e-02 -1.7586707764133690e-02  3.0951082175603811e-02 -2.4477136635063446e-02 -1.5741916804456822e-02  3.0371797587410113e-02 -2.4192665331229178e-02 -1.0113560294325448e-02  2.9227366554451243e-02 -2.2646121325857377e-02 -1.5851252679473061e-02  3.0026094741629525e-02 -1.9461426266824348e-02 -1.7612466591075508e-02  2.8083950245965099e-02 -2.2767408108385716e-02 -1.0900250710140554e-02  2.7516690043953036e-02 -2.1242271696140659e-02 -1.5748637866032419e-02  2.8228510090977044e-02 -1.7976669078138545e-02 -1.7416838862640352e-02  2.5898875298317272e-02 -2.1636017807242062e-02 -1.1389499543564748e-02  2.5806602987588346e-02 -2.0180025267641257e-02 -1.5518409169427429e-02  2.6427173821114477e-02 -1.6842517452705600e-02 -1.7102040054318157e-02  2.3755204730741438e-02 -2.0743993180211619e-02 -1.1727715407847668e-02  2.4071417858650100e-02 -1.9415313947655777e-02 -1.5236359801187821e-02  2.4590259882641151e-02 -1.6007926367406413e-02 -1.6738780283753325e-02  2.1595975852419871e-02 -2.0073974168633536e-02 -1.2024993052623219e-02  2.2291054330399969e-02 -1.8914968818188493e-02 -1.4963961018498744e-02  2.2694665204993095e-02 -1.5436624535224160e-02 -1.6379889507225458e-02  1.9376297995881933e-02 -1.9620694306106527e-02 -1.2356175721012467e-02  2.0447316605282994e-02 -1.8652634133106749e-02 -1.4749203865044025e-02  2.0725166849596487e-02 -1.5104040498469353e-02 -1.6064582047566750e-02  1.7064080978187502e-02 -1.9382448422687690e-02 -1.2779687249830784e-02  2.8161457230482356e-02 -3.3690031916279221e-02 -1.3556207030080489e-02  2.7170584223863044e-02 -3.1865368067764493e-02 -1.3357798228313874e-02  2.6169541494612297e-02 -3.0692335387368742e-02 -1.2872611046210458e-02  2.5172270766821769e-02 -2.9999697738282174e-02 -1.2281225488784497e-02  2.4193659939280274e-02 -2.9681523176400184e-02 -1.1686284354607430e-02  2.3243648496774714e-02 -2.9670278931925254e-02 -1.1148168045725560e-02  2.2330539026614728e-02 -2.9925454545868507e-02 -1.0704985437780970e-02  3.0989189046636802e-02 -2.8178280234281025e-02 -1.9759024737033924e-02  3.2183368547292826e-02 -2.9758667691769197e-02 -2.6089823368450279e-02  3.0244615010868788e-02 -3.0212190510047428e-02 -1.8786367115761152e-02  2.9336425132666769e-02 -2.8286299438200959e-02 -1.8071830732396134e-02  3.1687861128795576e-02 -2.7923597929844422e-02 -2.4308330906583107e-02  2.9927456659842339e-02 -2.6228031806713011e-02 -1.9071651079514765e-02  2.8808642463174248e-02 -2.4812805168690003e-02 -1.8195790973594656e-02  3.1065124361584068e-02 -2.6755167782426221e-02 -2.2440168816599174e-02  2.8347130078253444e-02 -2.6957351346504978e-02 -1.7147009207218511e-02  2.7641895905380888e-02 -2.3838725705994331e-02 -1.7235805682201313e-02  3.0365685799359495e-02 -2.6070926229987815e-02 -2.0587986081222625e-02  2.7319361628907055e-02 -2.6091592813469278e-02 -1.6149952721259592e-02  2.6439366969792110e-02 -2.3226087816763406e-02 -1.6259002513273030e-02  2.9612413608255821e-02 -2.5771472042881223e-02 -1.8771580680081376e-02  2.6262774809173495e-02 -2.5596950714613598e-02 -1.5148396834233809e-02  2.5206429029454611e-02 -2.2918425984380385e-02 -1.5314673214944556e-02  2.8827199399250290e-02 -2.5789094734762003e-02 -1.7003963277393504e-02  2.5188185153469093e-02 -2.5411916862744102e-02 -1.4188416230345261e-02  2.3956622582806956e-02 -2.2887399871247910e-02 -1.4435743669583851e-02  2.8033586154037657e-02 -2.6080481831551500e-02 -1.5287202334289506e-02  2.4095660688265623e-02 -2.5489971223146238e-02 -1.3301977967622496e-02  2.6859056144817341e-02 -4.0390639915732482e-02 -2.7925280222074803e-02  2.6887183310510258e-02 -3.9873862369924268e-02 -2.4636952019661196e-02  2.7016068527611615e-02 -3.9851232874969909e-02 -2.1817263176831098e-02  2.7272672130812432e-02 -4.0218637138212401e-02 -1.9285133883336310e-02  2.7659811438036815e-02 -4.0942827937537500e-02 -1.6926685076808726e-02  2.8207913633878326e-02 -4.2009327770694570e-02 -1.4668539377107137e-02  2.8937277446282297e-02 -4.3386757641298533e-02 -1.2468753263348020e-02  3.0192850038458043e-02 -2.7057117990979925e-02 -1.4521897017949278e-02  2.9304925559132920e-02 -2.9661490168813091e-02 -1.2866609206430558e-02  2.8942921583802475e-02 -2.9828294137468864e-02 -7.5855392825908722e-03  2.6948776905262366e-02 -2.8589460538370356e-02 -8.5478909921441418e-03  2.7829160979605864e-02 -2.7940740893625009e-02 -1.3149278251160060e-02  2.8588478822505082e-02 -2.5291763138046350e-02 -1.4649123935202466e-02  2.6356680553475832e-02 -2.6676653002600682e-02 -1.3143582813597357e-02  2.6994187299157153e-02 -2.3960639636734060e-02 -1.4562933914676385e-02  2.5044017018856356e-02 -2.7576591961390891e-02 -9.1724930565646439e-03  2.5395659191690706e-02 -2.2975836078327545e-02 -1.4344136463812095e-02  2.4882453690550588e-02 -2.5783467169662629e-02 -1.2974080670065762e-02  2.3172052225713585e-02 -2.6812502167026391e-02 -9.6096964363644628e-03  2.3776131310432484e-02 -2.2295299742583388e-02 -1.4080548732232604e-02  2.3393123343525613e-02 -2.5195020536530575e-02 -1.2771913013996392e-02  2.1294589897615915e-02 -2.6276489577671668e-02 -1.0008177706402140e-02  2.2123418590499256e-02 -2.1883519136356569e-02 -1.3839556901478495e-02  2.1881963910335533e-02 -2.4880761041704010e-02 -1.2607225177039365e-02  1.9387966906078483e-02 -2.5970589357817646e-02 -1.0454543123531737e-02  2.0425912609655320e-02 -2.1713025169489607e-02 -1.3673653845640951e-02  2.0349068674597907e-02 -2.4812848233659993e-02 -1.2533892590454032e-02  1.7436336800029227e-02 -2.5885383593674968e-02 -1.1017188558878083e-02  2.9715035031934824e-02 -2.7016835700481332e-02 -9.6170380014097799e-03  2.7635695259461943e-02 -2.5637066369120262e-02 -1.0378591377720126e-02  2.5634730254107035e-02 -2.4541979961985323e-02 -1.0860006922510226e-02  2.3669049766970873e-02 -2.3704123604537861e-02 -1.1174050697932982e-02  2.1693063995700989e-02 -2.3102922785093231e-02 -1.1444746760825932e-02  1.9675084566113325e-02 -2.2729325605981607e-02 -1.1753101095448944e-02  1.7587979532866737e-02 -2.2564780369737997e-02 -1.2143771093753671e-02  3.1628422177577727e-02 -3.8568462185067695e-02 -3.3218919058176567e-02  3.3411070039920665e-02 -4.2593513608168293e-02 -4.3531159733658946e-02  3.1558488686282603e-02 -4.0586376049533947e-02 -3.7140293289876856e-02  3.2107401261861665e-02 -4.1391582854496699e-02 -3.3009155525640405e-02  3.4181793028791208e-02 -4.4005492431659320e-02 -3.9279550405214754e-02  3.2069839515082840e-02 -3.8442025219176619e-02 -2.9420882964626700e-02  3.4965106053403333e-02 -4.5649538367796193e-02 -3.5567172885099904e-02  3.2432845667633756e-02 -3.8873878530136623e-02 -2.6167192061535578e-02  3.2666206126293701e-02 -4.2522420033507764e-02 -2.9533022755624035e-02  3.5747006000272398e-02 -4.7519218536048104e-02 -3.2165991782721393e-02  3.2789025837623838e-02 -3.9747134552309660e-02 -2.3195427484292694e-02  3.3273891387919918e-02 -4.3958381172826563e-02 -2.6376980171423724e-02  3.3956474003134611e-02 -4.5697643201851844e-02 -2.3366814155103666e-02  3.6557018953677987e-02 -4.9640452972093706e-02 -2.8900342844728925e-02  3.3174025414832921e-02 -4.0976007160583604e-02 -2.0365443068446017e-02  3.3609317664219096e-02 -4.2506734577862047e-02 -1.7597049858659397e-02  3.7418762400332845e-02 -5.2046045346904761e-02 -2.5663198900404010e-02  3.4733078479159692e-02 -4.7735317057532353e-02 -2.0396069877169052e-02  3.4092027712444961e-02 -4.4317625638803274e-02 -1.4840594807681639e-02  3.8330677405927840e-02 -5.4742522109374962e-02 -2.2390968474618037e-02  3.5625208001384800e-02 -5.0056275809533375e-02 -1.7391981903565522e-02  1.6732549835531688e-02 -4.1516086281718607e-02 -5.5733386773007603e-03  1.6818064835114513e-02 -4.1047096927571927e-02 -5.5417959279887149e-03  1.5336425387635664e-02 -4.6266245086395305e-02 -2.4726210215691852e-03  1.7890430310033120e-02 -4.0793770066325716e-02 -4.1168551686551940e-03  2.9435779266711339e-02 -3.2056127638970228e-02 -1.7495620076378452e-02  2.8635895034211357e-02 -3.0154994565739723e-02 -1.6801726230249364e-02  2.7772787179768926e-02 -2.8928921303602452e-02 -1.5903326364130648e-02  2.6880857412621750e-02 -2.8188458362841926e-02 -1.4929357543820781e-02  2.5980519592764574e-02 -2.7829309984987519e-02 -1.3946263703441932e-02  2.5085321581193920e-02 -2.7783717641631300e-02 -1.3001328807533753e-02  2.4195118834858545e-02 -2.8009641940409242e-02 -1.2124672814204870e-02  2.4543566895900738e-02 -4.0710074533432165e-02 -4.2393603064246671e-03  2.3835350662571263e-02 -4.1640025793859871e-02 -6.2391544770147691e-03  2.3124612027532767e-02 -4.4863809556857849e-02 1.6979049782523592e-03  2.3314440974696878e-02 -3.9055416282092727e-02 -4.9840063255253732e-03  2.2834948636379224e-02 -3.9751976907598456e-02 -6.4565768729596268e-03  2.9398255058922150e-02 -3.3689623352706408e-02 -1.9595171293650085e-02  3.0534933456169099e-02 -3.5319688985173028e-02 -2.5415025621154178e-02  2.8628926355748839e-02 -3.5029154389647439e-02 -1.8404216816575465e-02  2.8112717828162829e-02 -3.3215584695383826e-02 -1.7014642158671048e-02  3.0470474867165118e-02 -3.3968259486690786e-02 -2.2884115316328994e-02  2.8903921866595503e-02 -3.1886344445183887e-02 -1.8226125034106134e-02  2.7551807577785973e-02 -3.2248128019660038e-02 -1.5543066201595951e-02  3.0313068982282577e-02 -3.3352760764527596e-02 -2.0536050169719992e-02  2.8323225811973010e-02 -3.0860694042053237e-02 -1.6794094974368439e-02  2.7007307009692491e-02 -3.1851287133547165e-02 -1.4097379451232121e-02  3.0123806866636169e-02 -3.3286421645517268e-02 -1.8326464194282698e-02  2.7723741651744273e-02 -3.0363308905219814e-02 -1.5362079317236339e-02  2.6502483174199443e-02 -3.1855942638501188e-02 -1.2716419465149951e-02  2.9941556427292893e-02 -3.3625595711961880e-02 -1.6204221363896345e-02  2.7130250368697977e-02 -3.0266039900943734e-02 -1.3965883873206049e-02  2.6044623618598651e-02 -3.2167058697490834e-02 -1.1412006010262144e-02  2.9782054402140240e-02 -3.4284731516178293e-02 -1.4139673124306716e-02  2.6556650168412008e-02 -3.0486959087271108e-02 -1.2626001768334720e-02  2.5611846925034321e-02 -3.2732489561671900e-02 -1.0183748998793847e-02  2.9695957464259095e-02 -3.5229048924899184e-02 -1.2133170674444511e-02  2.6000349580059801e-02 -3.0958445414706364e-02 -1.1344704766867829e-02  3.8350951885745943e-02 -4.1319692913784754e-02 -5.6296726572224079e-02  3.7697748423118266e-02 -4.2928287819457518e-02 -5.6227942196976841e-02  3.6089733914300662e-02 -3.8847043690694409e-02 -4.6361330062270542e-02  3.6840394558076306e-02 -3.9400182648254699e-02 -4.2043428467418972e-02  3.8714965005096302e-02 -4.4942317407829557e-02 -5.1841029645756646e-02  3.9265032464956266e-02 -4.2994412902464862e-02 -5.1889022596499551e-02  3.7400790168903533e-02 -4.0356325987628269e-02 -3.8241469432387529e-02  3.9576214277565476e-02 -4.7005448680679185e-02 -4.8058113660679330e-02  4.0024968484119468e-02 -4.4830109506333052e-02 -4.8032817372480045e-02  3.7865894759546388e-02 -4.1639514683608277e-02 -3.4705802608711082e-02  4.0370366271584704e-02 -4.9214866282524528e-02 -4.4560682267058796e-02  4.0694259419262330e-02 -4.6838319565833862e-02 -4.4443331100797914e-02  3.8277755882627260e-02 -4.3214029071830640e-02 -3.1298562292231387e-02  4.1132321876411582e-02 -5.1628131069784637e-02 -4.1162224986262534e-02  4.1320332380057452e-02 -4.9063700449841437e-02 -4.0944807287170683e-02  3.8662476732789955e-02 -4.5071737752733654e-02 -2.7932865863232702e-02  4.1889736419999574e-02 -5.4296537509251813e-02 -3.7753526015858699e-02  4.1928055289381462e-02 -5.1550516969944386e-02 -3.7435872715412231e-02  3.9105919854491335e-02 -4.7196636051361748e-02 -2.4608464574162624e-02  4.2718493973738426e-02 -5.7223801797185087e-02 -3.4328720912979740e-02  4.2632730219884341e-02 -5.4276916423618947e-02 -3.3954606197044643e-02  3.4228145949580110e-02 -3.6829696441416905e-02 -3.8563880056409032e-02  3.4702886148437424e-02 -3.6560991714846391e-02 -3.4749540426695869e-02  3.5053413569660900e-02 -3.6831520250240495e-02 -3.1323186015120227e-02  3.5300915232479232e-02 -3.7518761407313840e-02 -2.8129188892898779e-02  3.5497269321170678e-02 -3.8555601624396821e-02 -2.5060858602313531e-02  3.5670113797614415e-02 -3.9895671471592148e-02 -2.2052583027406914e-02  3.5910280758135744e-02 -4.1508818036127867e-02 -1.9095319076807189e-02  2.7099758589032165e-02 -3.5075459470241398e-02 -3.6495208841858897e-03  2.6328073976400013e-02 -3.84084181