<?xml version="1.0"?>
<VTKFile type="UnstructuredGrid"  version="0.1"  >
<UnstructuredGrid>
<Piece  NumberOfPoints="939" NumberOfCells="3988">
<Points>
<DataArray  type="Float64"  NumberOfComponents="3"  format="ascii">2.859243205669689 2.963090850117612 3.948337263935005  2.853315633802437 2.826290491800682 4.025927262071173  2.997751248684766 2.862524970123393 4.013501019162925  2.860176660510477 2.995815547824835 4.003848008357762  2.850037006017567 2.854331767921884 4.084939025659082  2.994776177341594 2.895542947656563 4.070675050490751  2.991763928105214 2.928493502366791 4.127764880005215  2.846729531830692 2.882304264639984 4.1438586976531  2.86106385231994 3.028480220997411 4.059266604851321  2.988701340450031 2.961428601318871 4.184747934555795  2.843374610059997 2.910255411235465 4.202663437351218  2.861902212161401 3.061150335415117 4.114587855756126  2.98557021823212 2.994394897782842 4.241609725528157  2.839951468473607 2.938231609801271 4.261337402078794  2.862688447896161 3.093874647530072 4.169779141663042  2.457681039307306 3.177300804202682 3.713222133004824  2.567849147028682 3.083018267300357 3.75198258841404  2.590341529485928 3.213873630317342 3.661497006504904  2.60090012913469 3.249464845158539 3.712722964332955  2.575126622789554 3.114423464983571 3.806722623786356  2.467285455235374 3.209579268583147 3.767216473831435  2.611334632854301 3.284995701796586 3.763953133094765  2.582334057888241 3.145692711488134 3.861447793641705  2.476801484453094 3.241781230455645 3.821186326880353  2.621697481417077 3.320484438545936 3.815156349990385  2.589479696152853 3.176894722636561 3.916115386543975  2.486265143808692 3.273934933506568 3.87510478782346  2.632052035717146 3.355932473458534 3.866341259518582  2.596592420115246 3.208061873392251 3.970719604398445  2.495721073131345 3.306042673784063 3.928984246774728  2.642430446163439 3.391365230062704 3.917496730143569  2.603703148309897 3.239219130322692 4.025260457723222  2.505191086827672 3.338129438286027 3.982820157650221  2.652872252552539 3.426806851918021 3.968608573809208  2.610833827829158 3.270402415125449 4.079726491933632  2.514702936554919 3.37021393799392 4.03660389258911  2.975466489770794 3.052996926486638 3.963916452887054  3.110094864049846 2.964042902806547 4.036250399966455  2.973921394374294 3.016058150756107 3.911020513971242  2.976951599629385 3.089900493152421 4.016751891513289  3.108551714198577 3.001324417046731 4.091127277961774  2.97839529263278 3.126817947576767 4.069503378246859  3.106953925676286 3.038616325897386 4.145905495518249  2.979815435001005 3.163802966815235 4.122149779177036  3.105314251930177 3.075961300388763 4.200553626864056  3.037485104277719 3.052623679266858 3.714879405338707  3.082324273738312 3.155723522484229 3.620614626364137  2.970723469998635 3.130412042594987 3.659299660152511  2.977085442483511 3.170939977879879 3.707417645847115  3.089162560401963 3.198854196640382 3.666480383871189  3.041633667669929 3.092978050232251 3.764288744833563  3.045695164146265 3.133167932617154 3.813800167860077  3.09586961535733 3.241899636525011 3.712462581173241  2.983343904863409 3.211365737911699 3.755630700739235  3.049672209444761 3.173290722842612 3.863342709545708  3.102485842976654 3.284931330079036 3.758513191664669  2.989517721303178 3.251754420373655 3.803873672731271  3.053593292385719 3.213406763391983 3.912879829065953  3.109062614872809 3.328000806445415 3.804599448599834  2.995655969547755 3.292148415522258 3.852130341234437  3.115649401439921 3.371155587639342 3.850696800849141  3.057492253392887 3.253571548804204 3.96237766228496  3.001793329046811 3.332599721435746 3.900384162294184  3.12229575057787 3.414446035905609 3.89677721666129  3.061395772344254 3.293847592279364 4.011794354933333  3.007969237482556 3.373171165043966 3.948619686859945  2.443970551580863 3.315833054864698 3.625001279771995  2.577792285708411 3.352077734889897 3.565616105753654  2.591492855817802 3.390173393331451 3.614716143149491  2.456705202875945 3.351409060035616 3.676487062958095  2.469306107946542 3.386968109096926 3.727929621204423  2.605039451820419 3.428292687566302 3.663798687103273  2.481860702886153 3.422479559534562 3.779344623129396  2.6185278302103 3.466386517497785 3.712878072323193  2.494413209554226 3.457945512822089 3.830734721668238  2.632016661103395 3.504449198062361 3.761953676715981  2.506997798686751 3.493373834928133 3.882093355433254  2.645556551703366 3.542485400040501 3.811016556495593  2.519656191426783 3.528768772135739 3.933407553576109  2.659204115533098 3.580489152328511 3.860048916094354  3.173959613706581 3.184631014774613 3.848176279495837  3.177208281370874 3.227536135405954 3.896218503884163  3.180431244275497 3.270529154412568 3.944242970963267  3.183675309560144 3.313680484017608 3.992199867733167  2.267936284113912 2.692751510029201 3.899664879659639  2.392483590961954 2.812792469557434 3.876102857160163  2.255377305545724 2.83680005849232 3.869317030174541  2.255905981938801 2.851375859039901 3.93129594331009  2.392215585112827 2.830030643275609 3.937404138531961  2.26600549928511 2.703111349291361 3.962315509381535  2.264166050703659 2.713335554729331 4.024885387715507  2.392022772261805 2.847114419504249 3.998624674543214  2.256529585697978 2.865811262699155 3.993162842435354  2.262395699223094 2.723456910809164 4.087338103945082  2.391858999451904 2.864084372193456 4.059738126264826  2.257193849144568 2.880143285607032 4.054939277243538  2.26063319240485 2.733524584774575 4.149684534145226  2.391682009453623 2.880996091879036 4.120749346004478  2.257852281979264 2.89442318481787 4.116616162310947  2.258809037329661 2.743600304492686 4.211916135081939  2.391446993563724 2.897902611070204 4.181646946032085  2.258447428697102 2.908706961838534 4.178188731262174  2.256848147844251 2.753755025640359 4.274017880828033  2.391105522767343 2.914868067010951 4.242408441945057  2.258914232707262 2.923064933825837 4.239645565663559  2.915718560992153 3.063195574837398 3.719423274519314  2.920961012922287 3.101800813955695 3.769650131324818  2.926115518820328 3.140252286448316 3.819950647054586  2.931187243903443 3.178640227604495 3.870248999081003  2.936219158611275 3.217008047271778 3.920530918181061  2.941240332876717 3.255410757874767 3.970779058215258  2.946277963388516 3.293901032290649 4.020973466917201  2.861756510671787 3.159383276036017 3.649150479056809  2.869609492068861 3.198295701347035 3.697992089950591  2.877353768204133 3.237126516620591 3.746896779712086  2.885016656695507 3.275925287988032 3.795817314694661  2.892651169369648 3.314712256048725 3.844743201044362  2.900294558808297 3.353526202301197 3.893654820476317  2.908001122115324 3.392414159886094 3.942536636288148  2.340535144198933 3.27100012863874 3.680662824454878  2.351592617012579 3.304239044959843 3.734603492942276  2.362551854968642 3.337436631121783 3.788489442201223  2.373484633423879 3.370570933641829 3.842329776437573  2.384417729393879 3.403659096560385 3.89613409099882  2.395368320419084 3.436713252090939 3.949901103568599  2.406360121308146 3.469738197801976 4.003630043822809  2.328988907401669 3.403561966147255 3.594808296851073  2.341324535387296 3.440972645813948 3.646300952503951  2.353562362623849 3.478368715601196 3.697718481334973  2.365787284345808 3.515713870788524 3.749107706125593  2.378016963370884 3.553010088200518 3.800468149344738  2.390267091480313 3.590253399235628 3.851796096695285  2.402563063843648 3.627437874445056 3.903065694052457  2.47414001936727 3.562962702041555 3.682040871679463  2.341048259624978 3.647986321361515 3.652391456529446  2.488269824476233 3.60221430262105 3.731009380747612  2.353981469119268 3.689229782664969 3.701286498726955  2.366933957357631 3.73041483028836 3.750148706757765  2.502434184199912 3.641409340125469 3.779953448926059  2.516686527806903 3.680550881940198 3.828869440158085  2.379934889303793 3.771516863956109 3.798953758666619  2.160497995552888 2.739848361718586 3.890371726333004  2.159530293202248 2.75059030455425 3.953155534838789  2.158689038571849 2.76119306380102 4.015824698124801  2.15791897281698 2.771691708361079 4.078412387697893  2.157156497712888 2.782142249068665 4.140905315785341  2.156321109509136 2.792611418299663 4.203298378082228  2.155332807149086 2.8031661110516 4.265576536028861  2.121051990350848 2.866784019481913 3.863953270938609  2.121391965323009 2.880765671030071 3.926315573148451  2.121869226876456 2.894630318460572 3.988595022201955  2.122410206967475 2.908411240388223 4.05079820597027  2.122954084334204 2.922143108359769 4.112924493627844  2.123426866760211 2.935882175164959 4.174963881865583  2.123758456751706 2.949683668058677 4.236910340651207  2.742849554670578 2.919172685954292 3.975307689859584  2.743516585104512 2.890401938742361 3.917631315508185  2.742164589756842 2.947823228051085 4.032914075001369  2.741444367858988 2.976410674757926 4.090429249894157  2.740673657617335 3.004984117131002 4.147833394918505  2.739829259347378 3.033598503516546 4.205092012898512  2.972313988181754 2.979012415471084 3.858105221888468  2.788848854112357 3.100692904035527 3.704501794254119  2.796222611500116 3.137573106048313 3.755292013395109  2.803494897392315 3.174323553758293 3.806130325744092  2.810686068227465 3.211019598558856 3.856955307364275  2.817844969429053 3.247691116988685 3.907758095458897  2.825005843820894 3.28437361326971 3.958524483839114  2.83220645461488 3.321110714733264 4.009233107235717  1.512751845252476 3.042685037436229 3.794933698277688  1.637697248200173 2.996419306254452 3.816959006130713  1.648846648082471 3.106533052023575 3.783612856401508  1.645860585420884 3.127554462369441 3.844953923472299  1.633491661907947 3.013223232355633 3.879263051876291  1.50767742818564 3.060774686162001 3.857072487181711  1.643297553610275 3.148728074338301 3.906435479479848  1.629725071819713 3.030142034389926 3.941723517801561  1.503103662668155 3.079080562332861 3.919483741586785  1.640877721812079 3.169950
[...]
<PointData  Vectors="f_16"> 
<DataArray  type="Float64"  Name="f_16"  NumberOfComponents="3" format="ascii">3.3996419895577709e-02 2.8250839595733390e-02 2.8952701719706046e-02  3.4277252080778510e-02 2.2939941807745473e-02 2.6026443677234810e-02  3.2872618621838830e-02 2.2750160600997535e-02 2.5534566755261091e-02  3.4960218326293042e-02 2.5453066662350008e-02 2.9813800218268169e-02  3.5252314191308573e-02 2.0876167585524422e-02 2.6653949044290602e-02  3.4061051923586952e-02 2.0427773240395807e-02 2.6398498379894258e-02  3.4714803641243484e-02 1.8394445063747419e-02 2.7446000014094432e-02  3.5792159390754905e-02 1.9169873921737898e-02 2.7450763020066334e-02  3.5982726392054749e-02 2.2963177317485345e-02 3.0848663293976165e-02  3.5042980982053003e-02 1.6752659519314681e-02 2.8693697446862999e-02  3.6076963990851550e-02 1.7781212401077332e-02 2.8392892808655330e-02  3.6691541269564830e-02 2.0827999801624402e-02 3.2070642349720450e-02  3.5395648319701531e-02 1.5433645793106254e-02 3.0129442118598426e-02  3.6546145821946638e-02 1.6480587441008950e-02 2.9446539056965607e-02  3.7197999676419798e-02 1.9063971981178339e-02 3.3478366494227411e-02  4.1258859194459860e-02 4.7841869326749720e-02 3.6205565188957400e-02  3.9361896113837336e-02 4.4088458358091200e-02 3.3676528956257064e-02  4.0297503199158265e-02 5.3045605304715512e-02 3.6936869646934968e-02  3.9193830219461379e-02 4.9284317947472442e-02 3.8077590337293347e-02  3.8376236638857732e-02 4.0298161616799041e-02 3.4369636328158204e-02  4.0262818642515859e-02 4.4269275405255742e-02 3.6946252763868884e-02  3.8308996184948201e-02 4.5670868526764892e-02 3.9209285990410195e-02  3.7848009019587486e-02 3.6878704809606047e-02 3.5089679596597041e-02  3.9621220632068209e-02 4.0937915135045487e-02 3.7699987528136365e-02  3.7754782611257587e-02 4.2274783247549262e-02 4.0361957706612640e-02  3.8010718485270628e-02 3.3907555936833263e-02 3.5866270660406152e-02  3.9488655104944898e-02 3.7928458624709255e-02 3.8489011444633264e-02  3.7713491515426377e-02 3.9103699373027379e-02 4.1565885246697888e-02  3.8803060610949298e-02 3.1252628223609170e-02 3.6708118791427657e-02  3.9943856331299224e-02 3.5171387116351788e-02 3.9350256128406882e-02  3.8307977800621000e-02 3.6093994405886835e-02 4.2838616485785290e-02  3.9726182711514200e-02 2.8653000657687680e-02 3.7705201721639443e-02  4.0839695470017583e-02 3.2558699082258211e-02 4.0299573594068681e-02  3.9106145377939119e-02 3.2858356602633337e-02 4.4395872433778093e-02  4.0561486277395607e-02 2.6192856670459692e-02 3.8918935247368433e-02  4.1774773211019578e-02 2.9868032461189964e-02 4.1462812289782186e-02  3.3379241089495214e-02 2.7551274890342148e-02 3.1147062470001183e-02  3.2840093024165656e-02 2.1599082296582552e-02 2.7564092745679662e-02  3.2760040849954153e-02 3.1092452339548091e-02 2.9971894058267723e-02  3.4497109227550407e-02 2.4567005391967305e-02 3.2497561852607583e-02  3.3727568497057082e-02 1.9038609479642501e-02 2.8952771534285139e-02  3.5404203474190953e-02 2.1867542052735476e-02 3.4131541774462593e-02  3.4245746653724478e-02 1.6919618069144732e-02 3.0627026201458754e-02  3.6028163775748363e-02 1.9517740652129398e-02 3.6080046169698017e-02  3.4477812534013254e-02 1.5259853933780482e-02 3.2525887428430385e-02  3.3926320090616718e-02 4.9506125720180587e-02 3.1214755203445195e-02  3.4202380323310480e-02 6.0637875026522181e-02 3.5820861817207866e-02  3.5366563075360749e-02 5.5337304827807340e-02 3.4379091320852560e-02  3.4377079104857995e-02 5.0925263105165215e-02 3.6281754474012565e-02  3.3269140216606569e-02 5.6193091536730050e-02 3.8248752055299838e-02  3.3117139659574385e-02 4.4960540095582112e-02 3.2933149762756728e-02  3.2378133929151343e-02 4.0646659017520140e-02 3.4654780577698885e-02  3.2341583236831548e-02 5.1927815910165084e-02 4.0630511249248373e-02  3.3484167736425950e-02 4.6725438615851558e-02 3.8175940312736092e-02  3.2050554849995534e-02 3.6539762060716720e-02 3.6416628361587301e-02  3.1509349006722275e-02 4.7822576060278219e-02 4.2993457645928670e-02  3.2802515159458798e-02 4.2705458033948991e-02 4.0109736085656385e-02  3.2402366722110179e-02 3.2673239792258189e-02 3.8309536307213093e-02  3.1057299977705902e-02 4.3717700027938539e-02 4.5418872000790873e-02  3.2662519034164998e-02 3.8813709222018641e-02 4.2088091830317337e-02  3.1113791279638946e-02 3.9655162126856158e-02 4.7944661152747071e-02  3.3267249261843657e-02 2.9030237535367810e-02 4.0412099481521697e-02  3.3141429398281200e-02 3.5032689525724296e-02 4.4181880127831079e-02  3.1264232908040465e-02 3.5283099403801817e-02 5.0963324532809606e-02  3.3973790943299643e-02 2.5380019908310240e-02 4.2985685349580610e-02  3.3645240915548096e-02 3.1050215163417643e-02 4.6729223025332008e-02  4.2389111665134892e-02 5.6067603092076333e-02 3.9535109229578265e-02  4.1377870866699980e-02 6.2213388776679826e-02 4.1057493679151888e-02  4.0155087688102449e-02 5.8758149379995871e-02 4.2484252362293459e-02  4.1282585772401931e-02 5.2635721308965495e-02 4.0553679727706238e-02  4.0405104058980755e-02 4.9299718669045117e-02 4.1584168883077643e-02  3.9061324024985369e-02 5.5335483713807143e-02 4.3905582994847751e-02  3.9799010446019210e-02 4.6109295014815609e-02 4.2635705064447395e-02  3.8167934934581461e-02 5.1985322987451121e-02 4.5326514282271801e-02  3.9604314967431525e-02 4.3114262545876914e-02 4.3723693144536536e-02  3.7522909109443475e-02 4.8757308849365001e-02 4.6750542485379458e-02  3.9949357202112269e-02 4.0224051975319593e-02 4.4874023118630167e-02  3.7312177210201879e-02 4.5581948356074556e-02 4.8208865368864914e-02  4.0622001537198284e-02 3.7157840042930636e-02 4.6233072813132214e-02  3.7507847705147604e-02 4.2208618935355768e-02 4.9847200548384894e-02  3.0627714892486450e-02 3.8149064921738404e-02 3.7593901403417535e-02  3.0869284156563495e-02 3.3988330738403662e-02 3.9897701254904550e-02  3.1574193776314964e-02 3.0051504598439475e-02 4.2422809945710710e-02  3.2082527553117829e-02 2.6096389187835620e-02 4.5481445384311980e-02  4.0082800173609406e-02 2.9712324202392604e-02 2.8927158432955569e-02  3.9192372465673503e-02 3.2291998500399856e-02 3.0119257967648947e-02  4.1097555639650132e-02 3.3296113739766625e-02 3.1470392968011754e-02  4.0840983745667574e-02 3.0539759089059398e-02 3.1643187819589691e-02  3.8899270734608908e-02 2.9413799951674272e-02 3.0344215386227155e-02  4.0128571590788226e-02 2.7339998078738527e-02 2.9055227347627624e-02  4.0461216602693702e-02 2.5558645867179652e-02 2.9220132941289244e-02  3.9443224106269610e-02 2.7315745896682352e-02 3.0606346119414519e-02  4.1261255842104515e-02 2.8492239447282047e-02 3.1842673076003317e-02  4.0486233050061313e-02 2.4079092418021576e-02 2.9381958891966441e-02  3.9960535506571734e-02 2.5516714319171217e-02 3.0861435840780799e-02  4.1567989595214717e-02 2.6694264300938929e-02 3.2043574196189334e-02  4.0435027614195714e-02 2.2765076023352766e-02 2.9568305281147855e-02  4.0206929690711386e-02 2.3990797105881659e-02 3.1126699336192186e-02  4.1683426250970497e-02 2.5175119950123462e-02 3.2252230290224004e-02  4.0542756102156033e-02 2.1421258763054458e-02 2.9758897548714223e-02  4.0397370440699361e-02 2.2615853691441395e-02 3.1411904276366524e-02  4.1774928638497619e-02 2.3800565637083455e-02 3.2472515524419820e-02  4.0777398800943589e-02 2.0117632514369529e-02 2.9941795165651125e-02  4.0734534768620455e-02 2.1253438113784062e-02 3.1702322593048463e-02  4.1995162123716345e-02 2.2456386665873823e-02 3.2691626737728442e-02  3.5410660777635321e-02 4.8359589679089932e-02 3.1791695613278818e-02  3.4481744110900929e-02 4.3997454443515556e-02 3.3262012017209366e-02  3.3778408056601573e-02 3.9880013668918357e-02 3.4765723078317164e-02  3.3482311059402033e-02 3.6051907040612466e-02 3.6272294530289753e-02  3.3916966143922866e-02 3.2510653681013781e-02 3.7868914761518185e-02  3.4822560654686710e-02 2.9162989392420766e-02 3.9689297194206725e-02  3.5615915011103109e-02 2.5766072446788617e-02 4.1918567038667164e-02  3.6959758554698380e-02 5.5663176765436910e-02 3.5363630951205406e-02  3.5886810647544794e-02 5.1425427899330439e-02 3.7072248837489344e-02  3.4933225502060905e-02 4.7349820827463508e-02 3.8753420486329751e-02  3.4198444969869277e-02 4.3465891926127098e-02 4.0456619624053010e-02  3.3977378885022613e-02 3.9777906190151542e-02 4.2201812261504941e-02  3.4409126575429140e-02 3.6211332937074237e-02 4.4031193350052580e-02  3.4972546594737017e-02 3.2405670646287445e-02 4.6252346344432219e-02  4.3016076649912187e-02 5.0881266698340949e-02 3.8463399801587639e-02  4.2059572551274758e-02 4.7544380872727214e-02 3.9173611325706639e-02  4.1401512636695517e-02 4.4374581435892999e-02 3.9920174648103754e-02  4.1162354246806844e-02 4.1442721609931142e-02 4.0699051495218824e-02  4.1449195491909847e-02 3.8734733529699188e-02 4.1531650012612144e-02  4.2202558432070915e-02 3.6129263313685517e-02 4.2460034206261696e-02  4.3076905692438501e-02 3.3440641139027921e-02 4.3556450535569585e-02  4.3783304765507347e-02 5.8448866562868899e-02 4.1360277696582501e-02  4.2779312183309749e-02 5.5304851684163256e-02 4.2313729003671356e-02  4.1976552220102312e-02 5.2234103699379093e-02 4.3300366514102330e-02  4.1417676743945211e-02 4.9260648017402056e-02 4.4315942521332689e-02  4.1199634222327919e-02 4.6451010926864190e-02 4.5369478831196866e-02  4.1430978544174879e-02 4.3738939573797757e-02 4.6471181744235972e-02  4.1918935182565169e-02 4.0795477548980968e-02 4.7775815119690139e-02  4.0115920354903682e-02 5.4885023865259536e-02 4.6599450537271658e-02  4.1866977188305163e-02 5.7301602260681359e-02 4.7306785766057569e-02  3.9488111961361150e-02 5.1961427763671839e-02 4.7890583161517904e-02  4.1353422134873939e-02 5.4660565255154857e-02 4.8523831727144980e-02  4.0999469547553555e-02 5.2086249054046234e-02 4.9777192258618347e-02  3.9173285342499198e-02 4.9139969713129956e-02 4.9187064277204637e-02  3.9208513404471526e-02 4.6095889962156619e-02 5.0660732206674677e-02  4.0777469895418826e-02 4.9381025471227483e-02 5.1166712535145896e-02  4.1795692192703252e-02 3.1131240557126207e-02 3.0371845791291853e-02  4.1795796339569743e-02 2.8799165720565772e-02 3.0498337079770454e-02  4.2004044115117677e-02 2.6993378855160035e-02 3.0645476295362729e-02  4.1989147238381222e-02 2.5483434520646778e-02 3.0803142414038896e-02  4.1908369946068467e-02 2.4138726968554212e-02 3.0981923360784296e-02  4.1948857473356610e-02 2.2814184414605143e-02 3.1166462681428368e-02  4.2121267576108186e-02 2.1510514970600556e-02 3.1342487504815969e-02  4.3002750119770304e-02 3.4302275725677261e-02 3.2680429372450422e-02  4.2791499123982647e-02 3.1682611727378553e-02 3.2839243950477798e-02  4.3120552990640090e-02 2.9692547808416091e-02 3.3025114841394851e-02  4.3292947723706093e-02 2.7953612026855881e-02 3.3210853489271538e-02  4.3301380639971895e-02 2.6467099289913296e-02 3.3407506716849153e-02  4.3317061852971669e-02 2.5114482236042675e-02 3.3610281953599178e-02  4.3465708033550848e-02 2.3788736200257718e-02 3.3814426636182310e-02  3.5312130048591982e-02 2.6939264429729375e-02 2.8820922262597536e-02  3.4872574978849796e-02 2.9797802061327039e-02 2.8269161919163455e-02  3.6376473497430478e-02 2.4635210511757020e-02 2.9450618975929578e-02  3.7193607320710628e-02 2.2553266710415087e-02 3.0232876162434790e-02  3.7736666918246072e-02 2.0831384009538757e-02 3.1146420837809306e-02  3.8227754947727698e-02 1.9362909934823942e-02 3.2154860644655323e-02  3.3028163306195624e-02 3.5122687262560223e-02 2.8864209372706045e-02  3.7219196406473753e-02 4.9377159170229439e-02 3.3308598748534063e-02  3.6200141849252465e-02 4.5168414418755423e-02 3.4612072765447081e-02  3.5395808195629104e-02 4.1213805883362292e-02 3.5902811461399939e-02  3.5013382222854217e-02 3.7610631911193175e-02 3.7233918509221350e-02  3.5336184604529620e-02 3.4289838675286968e-02 3.8632894169736857e-02  3.6185883737732183e-02 3.1098440315289549e-02 4.0205838341765665e-02  3.7024178352854251e-02 2.7816529169431170e-02 4.2106489401945467e-02  5.1990424861072672e-02 4.1231632772503295e-02 3.6122472984567347e-02  5.0104055062589491e-02 3.9366214488260949e-02 3.5599563162379458e-02  5.0402165081525424e-02 4.2360629647315920e-02 3.6968668293100838e-02  5.0292992553465185e-02 3.9960201407351188e-02 3.7176723589616788e-02  5.0100772352051126e-02 3.7096393623931488e-02 3.5773471331804405e-02  5.2005423026553095e-02 3.8984916926330493e-02 3.6292561048191029e-02  5.0467670678511864e-02 3.7961342059330071e-02 3.7402737405900922e-02  5.0176985427893048e-02 3.5236433645821068e-02 3.5966845695040356e-02  5.2099315926302306e-02 3.7108808555823110e-02 3.6477135930514312e-02  5.0593311721359953e-02 3.6155677925609232e-02 3.7634199787291399e-02  5.0072301152558195e-02 3.3626492717264395e-02 3.6163494220575305e-02  5.1994034665897471e-02 3.5488560586270548e-02 3.6668990193757918e-02  5.0584354280789515e-02 3.4540430142660360e-02 3.7866896531680079e-02  4.9861318552777721e-02 3.2203390836289925e-02 3.6365077323323142e-02  5.1755915136651141e-02 3.4061616040719646e-02 3.6872135781392722e-02  5.0484618667253019e-02 3.3108633650820708e-02 3.8102977791170625e-02  4.9672799245130413e-02 3.0886058798114940e-02 3.6568196540662574e-02  5.1512759585736756e-02 3.2741077176232272e-02 3.7083290798213819e-02  5.0390542799769913e-02 3.1803998984020455e-02 3.8340240024465726e-02  4.9592938636609830e-02 2.9618553130267001e-02 3.6770410840704412e-02  5.1362445504913389e-02 3.1458766083134970e-02 3.7292687567733428e-02  4.4665129139516230e-02 5.4405478779066742e-02 4.0438764011961337e-02  4.3809720632692457e-02 5.1302862473422743e-02 4.1165444113132568e-02  4.3209075722701766e-02 4.8333809051670076e-02 4.1923683831477279e-02  4.2931596452269051e-02 4.5549759978095815e-02 4.2718798743851115e-02  4.3097970509921701e-02 4.2968297449312201e-02 4.3557715840425747e-02  4.3663863939224390e-02 4.0442448202963700e-02 4.4483179634104190e-02  4.4370701921208941e-02 3.7725430825859198e-02 4.5588689926690677e-02  4.3078303488061409e-02 6.4004117652815301e-02 4.2825015037150437e-02  4.1958185703792027e-02 6.0949147790979520e-02 4.4058195656487248e-02  4.0950360230092499e-02 5.7887802325376478e-02 4.5321891105701298e-02  4.3444975849719271e-02 3.1442670071408954e-02 3.0701020900554779e-02  4.3473859558030653e-02 2.9264927668464575e-02 3.0804441104753801e-02  4.3478424065727266e-02 2.7547042258733473e-02 3.0922378337264481e-02  4.3316064682847551e-02 2.6110756947870978e-02 3.1049998394650474e-02  4.3163642379358790e-02 2.4772890586813607e-02 3.1191292129252462e-02  4.3146038713749627e-02 2.3456025490993911e-02 3.1333428259013266e-02  4.3255511598794073e-02 2.2157481538556598e-02 3.1476525946400880e-02  4.3235982105972778e-02 5.2233148567911628e-02 4.5381741870069790e-02  4.3055236316343344e-02 4.9634383411042191e-02 4.6394431068309101e-02  4.3136064861250718e-02 4.7118230958187367e-02 4.7470083203341056e-02  4.3409903323136163e-02 4.4381114122395871e-02 4.8732363413684442e-02  4.4005277774887358e-02 4.8254827612273322e-02 3.8328756292734766e-02  4.3224243554007440e-02 4.5054139181964853e-02 3.8857124453239286e-02  4.2805562598166119e-02 4.2083178665694256e-02 3.9416135813304012e-02  4.2880892280388654e-02 3.9422787532119218e-02 4.0011331044759832e-02  4.3445186893432589e-02 3.7015789569125122e-02 4.0667872976862904e-02  4.4222513550770455e-02 3.4645706831220924e-02 4.1406780883619716e-02  4.5004578286644052e-02 3.2297563989956084e-02 4.2267516132491918e-02  4.4476846069477487e-02 3.4160298817080312e-02 3.2901904317873223e-02  4.4381524934727842e-02 3.1758745574904532e-02 3.3041044592547406e-02  4.4564058741101670e-02 2.9893486326193222e-02 3.3204420822422635e-02  4.4556046587422612e-02 2.8278873902818143e-02 3.3373828503675686e-02  4.4447478987820671e-02 2.6870575326697305e-02 3.3553781030799597e-02  4.4406668464482012e-02 2.5551436785633978e-02 3.3739460827583369e-02  4.4504457383998858e-02 2.4250351399434173e-02 3.3926874794826006e-02  5.1937504701860968e-02 4.4276787895899221e-02 3.7483629186655855e-02  5.1883116595742976e-02 4.1968343386625626e-02 3.7702850168561862e-02  5.2070021722969394e-02 3.9994839263238505e-02 3.7941639489054352e-02  5.2236000583588099e-02 3.8208927113584160e-02 3.8183158858333809e-02  5.2272095522524403e-02 3.6596918295209828e-02 3.8426713826037733e-02  5.2199938078439492e-02 3.5165412645884006e-02 3.8672753406555585e-02  5.2100868501643534e-02 3.3871870492634293e-02 3.8920318076057836e-02  4.3203102336829440e-02 5.6873355777964901e-02 4.8851378977030395e-02  4.2761546478186113e-02 5.4491713020417554e-02 5.0099576588343256e-02  4.2398395750595050e-02 5.2038076099290967e-02 5.1425900269667695e-02  3.6861903347098580e-02 3.9236465767449262e-02 3.0149356110393908e-02  3.4768155537939771e-02 3.5809895203441182e-02 2.7501089207675636e-02  3.5777988331057893e-02 4.2657235695189803e-02 3.0338037063383207e-02  3.4909181238787432e-02 3.8426465682305955e-02 3.1339832953135541e-02  3.3923159378692842e-02 3.1705718941370004e-02 2.8208944161660258e-02  3.5969188229003086e-02 3.5317175287988146e-02 3.0812693194802954e-02  3.4414975867179357e-02 3.4567964767825018e-02 3.2383077084648888e-02  3.5704227065504343e-02 3.1868556576128575e-02 3.1499811397907848e-02  3.4642429957540723e-02 3.1139505059391139e-02 3.3488451400880810e-02  3.6295572619855637e-02 2.8993860808942885e-02 3.2260086761921651e-02  3.5621410711485862e-02 2.8120121147345141e-02 3.4706096103630804e-02  3.7358489035499522e-02 2.6485317886694931e-02 3.3132883409538155e-02  3.6625502738048162e-02 2.5247754890746908e-02 3.6162932123690858e-02  3.8216664146896374e-02 2.4127438744907442e-02 3.4167843521929572e-02  3.7378358392752428e-02 2.2605494481134289e-02 3.7907946982460645e-02  3.8814519865703820e-02 2.2163818767158144e-02 3.5391007787917414e-02  4.1472630534316580e-02 2.8548600633805002e-02 2.7904674472223660e-02  4.1573769907256510e-02 2.6528274023206490e-02 2.7993332412038243e-02  4.1498005414971798e-02 2.4995201096794969e-02 2.8054595414556086e-02  4.1298629244056931e-02 2.3645677590451417e-02 2.8137484391029852e-02  4.1193601198165633e-02 2.2299455921967169e-02 2.8227024581237523e-02  4.1204100177491883e-02 2.0979579040593551e-02 2.8317336439177263e-02  4.1350944631738752e-02 1.9685194843671830e-02 2.8414016084041795e-02  5.0601733563368605e-02 3.5484520286103154e-02 3.2323714164891708e-02  4.9806460243640438e-02 3.6909996796472749e-02 3.4090629476249530e-02  5.1346481402658802e-02 3.8306329790580733e-02 3.4562092465363119e-02  5.1347847965397167e-02 3.6163971654737906e-02 3.4696110896876298e-02  4.9832659468734504e-02 3.4788825386047710e-02 3.4205713111599548e-02  5.0591209425247939e-02 3.3505555833138474e-02 3.2371580260997901e-02  5.1224944368001325e-02 3.4438852164483516e-02 3.4835276531846086e-02  4.9713894736968918e-02 3.3077262605729942e-02 3.4339199539246482e-02  5.0212446222837201e-02 3.1972482332389383e-02 3.2452642238081447e-02  5.0899453784062687e-02 3.2970162218169931e-02 3.4994176355079475e-02  4.9423398880349141e-02 3.1620949095777715e-02 3.4488680915861443e-02  4.9772193932834823e-02 3.0583942921485998e-02 3.2547171546220353e-02  5.0556459564716640e-02 3.1608906892252674e-02 3.5169797649909830e-02  4.9130253298903089e-02 3.0268237204839340e-02 3.4644665871311396e-02  4.9436274960057029e-02 2.9201580737330160e-02 3.2644542565813145e-02  5.0325502834580316e-02 3.0275075095820517e-02 3.5342651168690301e-02  4.8952200918000476e-02 2.8950122887775258e-02 3.4802641521519843e-02  4.9225359468729565e-02 2.7853286051007883e-02 3.2745181633613354e-02  5.0225408671652406e-02 2.8978677423566475e-02 3.5508124741627352e-02  4.8914265554567168e-02 2.7668739648178432e-02 3.4961929239281583e-02  4.9169749874694101e-02 2.6537462023762472e-02 3.2849494095854796e-02  3.8568541049087628e-02 5.4404293726934387e-02 3.6155905689541808e-02  3.9870128999894706e-02 5.8816424702004405e-02 3.8547523379545368e-02  3.8686904753055293e-02 5.5065927156993502e-02 4.0081504316837081e-02  3.7460789074855380e-02 5.0378053009447699e-02 3.7572477470362839e-02  3.7649301394566223e-02 5.1425686975726623e-02 4.1582923582612459e-02  3.6518413570