<?xml version="1.0"?>
<VTKFile type="UnstructuredGrid"  version="0.1"  >
<UnstructuredGrid>
<Piece  NumberOfPoints="997" NumberOfCells="4279">
<Points>
<DataArray  type="Float64"  NumberOfComponents="3"  format="ascii">8.895410063286967 1.533073795375506 2.265189620919304  8.829261961723663 1.519893364385529 2.351681881466638  8.785000649550204 1.508458591726102 2.218545167109312  8.800138778550526 1.452216962157738 2.214968025306426  8.84276415532578 1.464248753174139 2.354287853381695  8.909984542888278 1.477565453090246 2.262031543868289  8.8155917200756 1.396087273595136 2.211255137808454  8.856529518938723 1.408691026331007 2.356782764915007  8.924843985216095 1.422206698563671 2.258761701886309  8.831149601338334 1.340031352806665 2.207501496078323  8.870393481855743 1.353186757890479 2.359228118293865  8.939799469174652 1.366947694228204 2.255442227247299  8.846670433621679 1.284015247224772 2.203756867934394  8.884231833523902 1.297712513586374 2.361671956906095  8.954718633314984 1.311758280090648 2.252127783833031  8.862013279833953 1.227993731037308 2.2000715179152  8.897914283709735 1.24223943976896 2.364160189416463  8.96944191281813 1.256618725266207 2.248876616353454  8.876981943354807 1.171868364188725 2.196514999487009  8.911268026980755 1.186724861634997 2.366749582668999  8.983718650333959 1.201448954758979 2.24573256702803  9.110747725794669 2.138052330453744 1.473437160513647  9.005307589058482 2.110191301780934 1.473325871788899  9.066032942585505 2.215280195139028 1.430135301919425  9.07162355752358 2.192164402533042 1.38243733966309  9.012473665710187 2.087283616673989 1.42497174124746  9.11644742530828 2.1148059591856 1.425478514831641  9.077199916701501 2.169076243492801 1.334974158191225  9.019624951031915 2.064451882544189 1.376831785549784  9.122096300865362 2.091633986253709 1.377753791827352  9.082745952382398 2.146009614980637 1.28777010782208  9.026757616248629 2.041685358099113 1.328922888563356  9.127715905444967 2.068524249409973 1.330259815986157  9.088293008666165 2.123021737721033 1.240792134201174  9.033884271247686 2.018998222289875 1.281220330369993  9.133333840756993 2.045492600180047 1.28297621689253  9.093813878394423 2.100139873071904 1.194053707698265  9.040961320080672 1.996371261468282 1.23373799315006  9.138928503004342 2.022534365019493 1.235919316023394  9.099270310590313 2.077398514760172 1.147579820769074  9.04793963166362 1.973786254287034 1.18654735220855  9.144471360636294 1.999647677167624 1.189154069453633  9.032859261027092 1.652487851683533 1.886084267880581  9.017255972096189 1.617692023750645 1.986971295186179  8.908329320417753 1.620291473448971 1.891734035138775  8.921148339019815 1.567725453908666 1.869438842538521  9.028753353487362 1.564015512433149 1.970094573748742  9.045215752327346 1.60120136991791 1.862382756492755  9.057675126896557 1.550139964589735 1.838613264785015  9.040331634885572 1.510552373372666 1.95310964182216  8.93408116757205 1.51541683638344 1.847062371321303  9.070155636989861 1.499268144743736 1.814845585270473  9.051945848609538 1.457248358021274 1.936075301526091  8.947049461692361 1.463279577545841 1.82467299682304  9.082588305273614 1.448533837584026 1.791138014135962  9.063530966643663 1.404053000410836 1.919050725818988  8.959964377218522 1.411266560454347 1.802330296507852  9.094876228116304 1.397897838185491 1.767564138109118  9.075010867911097 1.35093461086047 1.902098750499668  8.97271801693951 1.359353536991356 1.780100356748482  9.086312599977925 1.297901997065273 1.885339600912399  9.106869646813966 1.347328117143821 1.744178814351769  8.985238674543698 1.307508624112989 1.758050937192706  8.825291630610813 1.472463323599591 2.106290869508111  8.807982098773286 1.491561696512089 2.005429055362284  8.711585913310445 1.438934281303991 2.086198240119265  8.791144904307437 1.545604317955716 2.021772746149184  8.808127409472743 1.527651683989079 2.115788215630238  8.825202590351054 1.437721924929501 1.988988754555877  8.842887932774554 1.417460238915369 2.096675681493565  8.726903355846202 1.382095297451204 2.075733694993439  8.842553920453717 1.3840059835708 1.972515045157183  8.860618015586786 1.362561259663163 2.087023558297969  8.742281535472896 1.325340422873819 2.065251022393002  8.859872052119004 1.330359988674701 1.956061586771367  8.878311127574189 1.307722726974787 2.077382979059333  8.757594619072249 1.268626324949081 2.054787955691678  8.876977027386342 1.276734235151221 1.939677662129262  8.895782313697268 1.252894956259735 2.067796288894749  8.772717118903651 1.211895784906056 2.044375085351681  8.912704733459 1.197935442170935 2.05830247164195  8.893543862395031 1.223004590373194 1.923406525816131  9.553213561971107 1.692242699470965 2.639569533554867  9.424701910508393 1.662423639804791 2.589161249319794  9.528409903984603 1.670580408474905 2.539473647540267  9.536711966467877 1.617831103271958 2.547952938444555  9.432785009215388 1.610125665712554 2.600180355191136  9.561615566077061 1.641220067113647 2.65447893951913  9.570035501171018 1.590233652626806 2.66929588324331  9.440870852430967 1.557862730038447 2.61106941567902  9.545017570771412 1.565134472277366 2.55632516033529  9.578444181143873 1.53930262850067 2.684055724145317  9.448951915157117 1.505644631339751 2.621889858043449  9.553312080189311 1.512481249081644 2.564633768560185  9.457019080937155 1.453474743461292 2.632687171475329  9.586837609042124 1.488437148764276 2.698785212298447  9.561594050334447 1.459882916295616 2.572916916339095  9.595209206964054 1.437646002129307 2.713515477497376  9.465056302883493 1.401386510885865 2.643502585752632  9.569866883757101 1.407344929642711 2.581212290080458  9.60353357279309 1.386910975642145 2.728275697480514  9.473062653760827 1.349380402070583 2.654389309961248  9.578090951448065 1.354916243976923 2.589567313902493  8.951680934866255 2.225167131138125 1.411817685802035  8.958796762410024 2.202752101470122 1.363829378552199  8.965914722870311 2.180375463220109 1.316115795241056  8.973027615265368 2.158009839928115 1.26864066833887  8.980131324385855 2.135708007028473 1.221389223114659  8.987186342858104 2.113509466538448 1.174359375523593  8.994118903120452 2.091469128468093 1.127633197203505  8.952552180600316 1.674521558992057 1.810109828037727  8.965119359282856 1.625553485336471 1.78132999236262  8.977778795383697 1.576848257142393 1.752519332935649  8.990468153276487 1.528325512211932 1.723726735232266  9.003109629622639 1.479916817520843 1.695004460827157  9.015616716150358 1.431575397143186 1.666411165809669  9.027886802143085 1.383244364305581 1.63796911507823  8.715349401346078 1.431900520465533 2.347482997708925  8.70048526055605 1.474071785583662 1.954427388570169  8.717503145740274 1.419407825529247 1.936607704445598  8.734625136573895 1.364832040946842 1.918768979649217  8.751698221661595 1.310299532776721 1.9009525457966  8.768575316611347 1.255747461624566 1.883185721895296  8.785061925871029 1.20104744983427 1.86548063836023  9.409877606585853 1.693143319431934 2.705364267881262  9.41830148626337 1.643382968073219 2.723074582575824  9.443678852163966 1.494242886421793 2.775774962700814  9.452094264296669 1.444605793396784 2.793305881439113  9.460455404707185 1.395017150803877 2.810881404730827  8.662698331538394 1.417576709224019 2.231401499013713  8.850413022153806 1.677329841143954 1.764828742562877  8.86393988667254 1.628944364317155 1.734656388380148  8.877589831439293 1.580822697384188 1.70443031363279  8.891287483528442 1.53286523396768 1.674220485642651  8.904938346217424 1.484991518253794 1.644071717520668  8.918442781135946 1.437128319315104 1.614020603647439  8.931683389801078 1.389267086620534 1.58414478640801  8.806734662091706 1.464308487888947 2.469386920907647  8.821055506917544 1.409653171102029 2.477462389916659  9.044075811797457 2.318102740634598 1.379620272643235  9.048728389421047 2.293688929741289 1.332583986876654  9.053384585493911 2.269240467940013 1.285799889844887  9.058026835841668 2.244787848586812 1.239276177951238  9.062662904416495 2.22039211099725 1.192972687941205  9.067284356587948 2.196117007730667 1.14686718986229  9.071895925727874 2.172109846789079 1.100960481896526  9.455729162562173 1.646105963844305 2.464703142038327  9.464202602823393 1.592590364371161 2.471546069851397  9.472686183476823 1.539142316260526 2.478234770982697  9.481161283249062 1.485769000797393 2.484847534371221  9.489616197275218 1.432473919937024 2.49143624068977  9.498033816251059 1.379274836391083 2.498048883372434  9.506391484799247 1.326172948983275 2.504752066561282  8.781075028593344 1.618105703770391 1.833016581986809  8.752879612485351 1.682959803461145 1.700281860557841  8.766631400483035 1.637067907472023 1.664894461659077  8.796550113533137 1.567539026072166 1.806477044136587  8.780477673391578 1.591458368555262 1.629480699635779  8.812240991359754 1.517236678734093 1.779859679021179  8.794344124129138 1.546023220420082 1.594143985518741  8.82801808533835 1.467092167352405 1.753241025798421  8.808133697630836 1.500683798653075 1.558908501041281  8.843761369244818 1.417031569649665 1.726667554357407  8.821729335452023 1.455407120676134 1.523812670479825  8.859341448118078 1.366996299175797 1.700178489004288  8.83510102955648 1.410168109029869 1.488897618080622  8.874501830866734 1.316910954720446 1.673795611090194  8.925473806357003 2.338014652530459 1.354542809644796  8.932414569627536 2.31413709004106 1.307165702440043  8.939390020398614 2.290223779844884 1.260069393055505  8.946390098485097 2.266299888712706 1.213218262937022  8.953379779143809 2.242422771804358 1.166596939412921  8.960327980334503 2.218680489670096 1.120178705346944  8.967144982138981 2.195237834488886 1.073983249267594  8.698288937933471 1.575558967047648 1.73512157806629  8.65473328507302 1.660831013468795 1.609796754147653  8.670515971262729 1.61927704803634 1.570129432464359  9.343557764095182 1.63405080791576 2.502881283001611  9.352186891467195 1.580721595323721 2.51043215106125
[...]
<PointData  Vectors="f_16"> 
<DataArray  type="Float64"  Name="f_16"  NumberOfComponents="3" format="ascii">-2.2545747777099147e-02 -8.1528143920427121e-02 9.9524119473929067e-04  -2.0771095239598417e-02 -8.5515215285654894e-02 5.1662190136848134e-03  -2.1896944263617834e-02 -8.0232068416735650e-02 1.2574627670141009e-03  -2.1996676055862408e-02 -7.8683449558119720e-02 -7.9242803886309045e-04  -2.0597822159735539e-02 -8.4318648898837112e-02 2.7787965921983043e-03  -2.2607601814973517e-02 -8.0058819017941152e-02 -1.0374201206914673e-03  -2.2021534399077777e-02 -7.7433309708266090e-02 -2.6935654330385588e-03  -2.0389378021917891e-02 -8.3311643971819491e-02 5.8171968754472760e-04  -2.2600853351666915e-02 -7.8860129173734819e-02 -2.9756080006009969e-03  -2.1985328992017040e-02 -7.6426354559103848e-02 -4.5550492013316018e-03  -2.0142691258128377e-02 -8.2470099902182903e-02 -1.5440895708944864e-03  -2.2541078294869687e-02 -7.7865212120302035e-02 -4.8697958335740194e-03  -2.1888809800562216e-02 -7.5621155331857273e-02 -6.4478384088177444e-03  -1.9857838305915875e-02 -8.1775116814030227e-02 -3.6815358712734996e-03  -2.2430744578154884e-02 -7.7050471063801543e-02 -6.7827890129904282e-03  -2.1727301155887422e-02 -7.4988792476004068e-02 -8.4283715883025339e-03  -1.9532909783119921e-02 -8.1215880085302214e-02 -5.8958815976873288e-03  -2.2264240970234116e-02 -7.6404179166180086e-02 -8.7650859895517397e-03  -2.1488211475123493e-02 -7.4510970914186223e-02 -1.0547595462679152e-02  -1.9166860040031708e-02 -8.0780771582139352e-02 -8.2380784417773398e-03  -2.2031598114744259e-02 -7.5932422660196189e-02 -1.0852131037486043e-02  -2.9655349263463211e-02 -6.1939371668676697e-02 -4.6736375946027378e-02  -2.7999207092267921e-02 -6.0757078500740004e-02 -4.3844519988279186e-02  -2.8681228590337938e-02 -6.1324788171118826e-02 -4.7638026113477762e-02  -2.9918741610132488e-02 -6.2001146362209110e-02 -4.7852786577459304e-02  -2.9180029916955917e-02 -6.1871336292651749e-02 -4.3510783381225257e-02  -3.0815012933061506e-02 -6.3025850801778166e-02 -4.6472822661343650e-02  -3.1131340406189582e-02 -6.2282112246858874e-02 -4.7928302281093897e-02  -3.0364041772624552e-02 -6.2520623386249641e-02 -4.3189425689360378e-02  -3.1964594302033952e-02 -6.3645653616812028e-02 -4.6184293001578121e-02  -3.2345122294392244e-02 -6.2288757308690643e-02 -4.7841277605355587e-02  -3.1560657011558413e-02 -6.2899716919885870e-02 -4.2821447652230456e-02  -3.3120951409045647e-02 -6.3982736336012550e-02 -4.5816445128718859e-02  -3.3584557964902437e-02 -6.2108005261197703e-02 -4.7568796254842914e-02  -3.2790942192698382e-02 -6.3168794644957740e-02 -4.2335924559945691e-02  -3.4309410204370748e-02 -6.4188409069014421e-02 -4.5315195323658769e-02  -3.5157662672235031e-02 -6.1599885291205150e-02 -4.7122426605935540e-02  -3.4224304612339482e-02 -6.3271812452966508e-02 -4.1705809308304954e-02  -3.5696623990445542e-02 -6.4235801613028096e-02 -4.4634314853831340e-02  -3.6962310496552013e-02 -6.0636129635642112e-02 -4.6543091368304472e-02  -3.6049761803403330e-02 -6.3089747979844082e-02 -4.0950882496683973e-02  -3.7452148066844965e-02 -6.3882169111368695e-02 -4.3850861023249761e-02  -2.8109907628624611e-02 -6.8014124632098757e-02 -1.5473014380114369e-02  -2.6970324045265909e-02 -7.1190967778078415e-02 -1.0889615877848971e-02  -2.6661556872042618e-02 -6.8175935323890796e-02 -1.2753443663126829e-02  -2.7385768449740899e-02 -6.6564846778718392e-02 -1.2697378643454058e-02  -2.7508017446034021e-02 -6.9471148131308794e-02 -1.1385928785122739e-02  -2.8845579740555103e-02 -6.6474799628534087e-02 -1.5197035789529398e-02  -2.9489201670051854e-02 -6.5403315653152744e-02 -1.5065302224693067e-02  -2.7976263552931847e-02 -6.8122900476343229e-02 -1.1868037242152558e-02  -2.8011841455260610e-02 -6.5413901588685930e-02 -1.2733701984782013e-02  -3.0051074473931280e-02 -6.4668892682604215e-02 -1.5064527090037680e-02  -2.8372588438457188e-02 -6.7121530979129790e-02 -1.2396362910405238e-02  -2.8548379976869754e-02 -6.4591127578305693e-02 -1.2891810214943509e-02  -3.0538034837246635e-02 -6.4209511743976641e-02 -1.5181159745436342e-02  -2.8691497406119208e-02 -6.6400750987668358e-02 -1.3019592756430236e-02  -2.8995298815947045e-02 -6.4043260164598201e-02 -1.3173577153138306e-02  -3.0945994311769767e-02 -6.3995714995665670e-02 -1.5410198006955306e-02  -2.8936555809629408e-02 -6.5921949878982297e-02 -1.3760808717093049e-02  -2.9353632105253637e-02 -6.3740704937509204e-02 -1.3578038168616155e-02  -2.9122245257389712e-02 -6.5663697393509537e-02 -1.4639730503061100e-02  -3.1266796448050131e-02 -6.4020548592623225e-02 -1.5750623225407521e-02  -2.9631450140114209e-02 -6.3679908779095656e-02 -1.4108704215484045e-02  -2.3721166599179180e-02 -7.4289977453117190e-02 -4.2048165962214942e-03  -2.4739780936349948e-02 -7.0768198534170879e-02 -6.7559848009867999e-03  -2.2705686531804041e-02 -7.3828795364772715e-02 -3.1563480755827183e-03  -2.4174523890560455e-02 -7.2559110089410600e-02 -5.8530945778483461e-03  -2.3368362942711808e-02 -7.6031035501893454e-02 -2.7430590871185168e-03  -2.5178787865159577e-02 -6.9325557961822340e-02 -7.7453015904096019e-03  -2.3962960918957513e-02 -7.2923400476981273e-02 -5.6511219372995048e-03  -2.2903709925824609e-02 -7.2453600691873746e-02 -4.6676979772876642e-03  -2.5527987493951011e-02 -6.8198259212790074e-02 -8.7841570134733534e-03  -2.4127495977668497e-02 -7.1837797575740853e-02 -7.1124542398639063e-03  -2.3032157584643949e-02 -7.1372565807253513e-02 -6.1930406064930202e-03  -2.5791648602344536e-02 -6.7344027626653993e-02 -9.8875830055499912e-03  -2.4217681501988001e-02 -7.0986932503114358e-02 -8.6244047773022022e-03  -2.3086761662351681e-02 -7.0526799274250651e-02 -7.7740959244743234e-03  -2.5959593395022847e-02 -6.6723857862545463e-02 -1.1075604619559445e-02  -2.4224415679594127e-02 -7.0339659733999554e-02 -1.0220026006236610e-02  -2.3059626158897454e-02 -6.9878628416786784e-02 -9.4456198409658253e-03  -2.4121229331962594e-02 -6.9871829351124917e-02 -1.1928613696300798e-02  -2.6007781408847637e-02 -6.6300701287272515e-02 -1.2356399172628702e-02  -2.5860376139641879e-02 -9.1317277894089749e-02 2.4721915282059567e-03  -2.4836776490103810e-02 -9.0703558390118177e-02 3.2136047118675971e-03  -2.6606875746662886e-02 -8.8784986508363736e-02 2.6102514082629414e-05  -2.6251176236745177e-02 -8.8237800147402526e-02 -1.8246556085560891e-03  -2.4346223377465975e-02 -9.0275227487568652e-02 1.3784604436819585e-03  -2.5287351326698120e-02 -9.1077276151774425e-02 9.1995374579683081e-04  -2.4715204656268874e-02 -9.0713865985641254e-02 -4.0980984238758001e-04  -2.3855752308469581e-02 -8.9791555055375172e-02 -2.4905669913607466e-04  -2.5875942035747567e-02 -8.7673217939832265e-02 -3.5235319933456183e-03  -2.4158445642553737e-02 -9.0247009726775351e-02 -1.6892100198497078e-03  -2.3370535545872928e-02 -8.9270559747917477e-02 -1.7978953668638853e-03  -2.5495034092150304e-02 -8.7106719073417077e-02 -5.1406543619727943e-03  -2.2893438199344675e-02 -8.8740096646259564e-02 -3.3836966145814650e-03  -2.3626208421931052e-02 -8.9720209539274010e-02 -3.0375684598336447e-03  -2.5120684082477175e-02 -8.6562831428485282e-02 -6.7725605588015774e-03  -2.3124263223963978e-02 -8.9193719477367872e-02 -4.5392821866732398e-03  -2.2432618040053424e-02 -8.8233833660799288e-02 -5.0804963826025515e-03  -2.4757769117482242e-02 -8.6055865937447282e-02 -8.4961646944472016e-03  -2.2632883082909325e-02 -8.8772706324313874e-02 -6.2251023597129041e-03  -2.1979613675295464e-02 -8.7767844984891999e-02 -6.9464728171801044e-03  -2.4422907549815000e-02 -8.5568142909059744e-02 -1.0347882896084922e-02  -2.6687675806810755e-02 -5.9837872392123286e-02 -4.5184937567486760e-02  -2.7970238958717301e-02 -6.0362397919207993e-02 -4.5539380164269748e-02  -2.9226441106458424e-02 -6.0517886647548549e-02 -4.5737944745099512e-02  -3.0479115899375891e-02 -6.0420045020209132e-02 -4.5788389408109413e-02  -3.1797596252998592e-02 -6.0111605679157909e-02 -4.5651720055415804e-02  -3.3436306879677101e-02 -5.9448289664085732e-02 -4.5376607684467656e-02  -3.5322537937608811e-02 -5.8424400313760790e-02 -4.4981024689040860e-02  -2.7748605046004748e-02 -6.5964826346457922e-02 -1.7557198806448154e-02  -2.8635592405725194e-02 -6.4733218335274553e-02 -1.6786860777803350e-02  -2.9412923574055099e-02 -6.3869193730139467e-02 -1.6261312309807659e-02  -3.0100918126728257e-02 -6.3331764746355476e-02 -1.5922423114246215e-02  -3.0706871069611324e-02 -6.3069327809387815e-02 -1.5721737277698739e-02  -3.1238465671807276e-02 -6.3057138039775557e-02 -1.5627066669037817e-02  -3.1690034087896328e-02 -6.3279707263964396e-02 -1.5613266342791038e-02  -1.9279967399542554e-02 -8.4818940539892293e-02 4.3019375377804352e-03  -2.4173426469048555e-02 -6.9259600345615513e-02 -6.4983852415923440e-03  -2.4632550577781388e-02 -6.7840184846766058e-02 -7.3486318551535413e-03  -2.5000508063818750e-02 -6.6760051617013136e-02 -8.2812052734323183e-03  -2.5279200858163969e-02 -6.5957677008648907e-02 -9.3005589348273306e-03  -2.5462703826353149e-02 -6.5383952231316364e-02 -1.0414893561331273e-02  -2.5529048767142976e-02 -6.4991378706843628e-02 -1.1640188696137661e-02  -2.3579962163139043e-02 -9.3699252818743306e-02 6.7484146862237101e-03  -2.2839057237442447e-02 -9.3594987403454843e-02 5.3994280381058878e-03  -2.0777800660657625e-02 -9.2199587643446421e-02 2.0424907271475007e-03  -2.0145347004332556e-02 -9.1582175339439048e-02 7.2828426891018399e-04  -1.9534018480544084e-02 -9.1000266399377486e-02 -8.3217299361299120e-04  -2.0277906874084404e-02 -8.0168343884618534e-02 1.6268277634514062e-03  -2.6916140002236209e-02 -6.4686241548296441e-02 -1.7706295953721463e-02  -2.7855558535406558e-02 -6.3584805975124101e-02 -1.6743749719011356e-02  -2.8702808101952915e-02 -6.2863705654266799e-02 -1.6041943300644342e-02  -2.9453575606283994e-02 -6.2435623656347132e-02 -1.5564690476216128e-02  -3.0115149289889700e-02 -6.2257536001240545e-02 -1.5248577305389900e-02  -3.0685473167922826e-02 -6.2314407266775465e-02 -1.5044655755466083e-02  -3.1199226339527354e-02 -6.2611111371775677e-02 -1.4966902564746537e-02  -1.8652750549363984e-02 -8.9335672208796887e-02 6.8148778480512755e-03  -1.8221764102549345e-02 -8.8600558664358897e-02 4.4570390703450495e-03  -2.8082231496017348e-02 -6.0641930443974014e-02 -4.7874534613304924e-02  -2.9430523534141575e-02 -6.0684850060366446e-02 -4.8626706980342951e-02  -3.0721012306208228e-02 -6.0429481151137464e-02 -4.9151464855635714e-02  -3.1981308116485196e-02 -5.9932686854628554e-02 -4.9464990910923844e-02  -3.3362250431236001e-02 -5.9146353953877503e-02 -4.9560323846450524e-02  -3.5071168775075275e-02 -5.7986140790722084e-02 -4.9446427598805437e-02  -3.6823115022592133e-02 -5.6293278246141040e-02 -4.9135567127963256e-02  -2.6608473155127935e-02 -8.6688018270482434e-02 -1.2207436069430948e-03  -2.6326425310337992e-02 -8.5939173905192123e-02 -3.1994910437920117e-03  -2.6023718122480229e-02 -8.5252974383227584e-02 -4.9525205435767628e-03  -2.5711707621210837e-02 -8.4634231370914623e-02 -6.6200936292686169e-03  -2.5394512079907533e-02 -8.4086549513384970e-02 -8.3043510855878265e-03  -2.5075031624071098e-02 -8.3612184378429405e-02 -1.0089014939990539e-02  -2.4760158573303624e-02 -8.3212740274006505e-02 -1.2050818818214152e-02  -2.5739011438142854e-02 -6.6486208374099728e-02 -1.2993189942385070e-02  -2.6272375207624290e-02 -6.2763550054673448e-02 -1.8456815449332635e-02  -2.7339326497628227e-02 -6.1962000913357983e-02 -1.7291588962235118e-02  -2.6607898207780822e-02 -6.4995726939186454e-02 -1.2690011326271088e-02  -2.8266613292003983e-02 -6.1527208148752351e-02 -1.6478007973071578e-02  -2.7359071794303264e-02 -6.3896341846357896e-02 -1.2542229077313668e-02  -2.9099854847492945e-02 -6.1333880786276003e-02 -1.5912244579123550e-02  -2.8012201624772005e-02 -6.3140056787615931e-02 -1.2544912266576608e-02  -2.9849384339991909e-02 -6.1361249419368026e-02 -1.5493030099153355e-02  -2.8569770563409667e-02 -6.2668311525063691e-02 -1.2682102015716210e-02  -3.0514158553567372e-02 -6.1621229121868820e-02 -1.5163758710147194e-02  -2.9030145867556076e-02 -6.2445381641064140e-02 -1.2939803985152116e-02  -3.1177456992382200e-02 -6.2103907634411142e-02 -1.4946944435843722e-02  -2.9368312882020870e-02 -6.2448565767209918e-02 -1.3310487474795718e-02  -2.6081665755477428e-02 -5.8873863853688424e-02 -4.4777917944486351e-02  -2.7448151116234516e-02 -5.8678442172700913e-02 -4.5695324165850648e-02  -2.8781184296276120e-02 -5.8236292932896824e-02 -4.6386586029983232e-02  -3.0111694326743682e-02 -5.7563356170548155e-02 -4.6877935590009447e-02  -3.1632380867785477e-02 -5.6537320513097011e-02 -4.7169170722262115e-02  -3.3412670368527721e-02 -5.5176298021477749e-02 -4.7268850516077654e-02  -3.5222671138621327e-02 -5.3339122074250546e-02 -4.7188898957221302e-02  -2.6183635289795254e-02 -6.3121953422269936e-02 -1.3385420106994644e-02  -2.6273030301174380e-02 -6.0604655513369583e-02 -1.8024879081762014e-02  -2.7313518111412350e-02 -6.0334652629605343e-02 -1.7135945990864914e-02  -2.4853416958576898e-02 -8.8437897682777211e-02 1.8449336603522098e-03  -2.4492297883828246e-02 -8.7749313649033295e-02 -1.8020472687401781e-04  -2.4117899658623491e-02 -8.7099844087006870e-02 -1.9918693154422139e-03  -2.3737529724633652e-02 -8.6491437372012162e-02 -3.7169771443968280e-03  -2.3356001877966916e-02 -8.5933518909170795e-02 -5.4580584056086040e-03  -2.2975355873534366e-02 -8.5438135323647565e-02 -7.2947026888470316e-03  -2.2596619785097940e-02 -8.5021222626777235e-02 -9.2859117519949932e-03  -3.1012774848928584e-02 -7.3225142241131219e-02 -1.5204718633242621e-02  -3.0940099466695212e-02 -7.0928051358555358e-02 -1.7305761669710207e-02  -3.2149102872116989e-02 -7.1100577469784904e-02 -1.8791518267771069e-02  -3.2593612462983076e-02 -6.9475122525089236e-02 -1.8902601247453400e-02  -3.1402223966900671e-02 -6.9269454116823351e-02 -1.7376414039441710e-02  -3.1358394693810909e-02 -7.1560987567305903e-02 -1.5828701405671816e-02  -3.2960882422766256e-02 -6.8274289627496335e-02 -1.9000693823828411e-02  -3.1819159365533714e-02 -6.8032505439365662e-02 -1.7485124920683968e-02  -3.1650186505966307e-02 -7.0272924035469364e-02 -1.6417871816387968e-02  -3.3286433993484597e-02 -6.7400499778399320e-02 -1.9182518505566924e-02  -3.2176876094601563e-02 -6.7130860344108811e-02 -1.7674300733127105e-02  -3.1899675695854585e-02 -6.9293866969675280e-02 -1.7034490679620155e-02  -3.3574361571052362e-02 -6.6796892131765984e-02 -1.9473718953941010e-02  -3.2488551629238208e-02 -6.6506556612249468e-02 -1.7967325093489240e-02  -3.2113219755025228e-02 -6.8575790130914527e-02 -1.7726324312937278e-02  -3.3831518068293917e-02 -6.6429549014878644e-02 -1.9894028216549717e-02  -3.2760353843593923e-02 -6.6123264651135244e-02 -1.8380772475196882e-02  -3.2294285595639870e-02 -6.8085906215088490e-02 -1.8531778426678615e-02  -3.4054277313057081e-02 -6.6270693483703888e-02 -2.0463935884690337e-02  -3.2996240117253904e-02 -6.5966477491529618e-02 -1.8938843606036870e-02  -3.2446895750295607e-02 -6.7791616452723802e-02 -1.9481534983798465e-02  -2.5158648243967043e-02 -8.0363989999072474e-02 -2.7653557718621924e-03  -2.4025525280628308e-02 -8.0266324572749695e-02 -1.4173796310768360e-03  -2.6075764925628488e-02 -7.7093734514899190e-02 -5.6604450366888100e-03  -2.6287256466847018e-02 -7.5497558237915346e-02 -7.0996855451309409e-03  -2.4149936431026028e-02 -7.8736989423192669e-02 -3.2208819310455966e-03  -2.5239133141574933e-02 -7.8870774226060827e-02 -4.5221193880657547e-03  -2.6447449343181058e-02 -7.4181631119530203e-02 -8.4115080513307728e-03  -2.4213521430494690e-02 -7.7449393966871519e-02 -4.9792740366762711e-03  -2.5277831341766241e-02 -7.7614560115597378e-02 -6.1934641457472911e-03  -2.6558207002130210e-02 -7.3131482828700439e-02 -9.6991794800117132e-03  -2.4226996873315726e-02 -7.6382336893369984e-02 -6.6932444646173395e-03  -2.5274498224416703e-02 -7.6575325103124314e-02 -7.8189134876358521e-03  -2.6615359209610109e-02 -7.2314189564691059e-02 -1.1033071267799550e-02  -2.4193279895063164e-02 -7.5514342129002099e-02 -8.4232755476149196e-03  -2.5231680812335872e-02 -7.5731499576190422e-02 -9.4598941761820463e-03  -2.6622747798075226e-02 -7.1700431407803689e-02 -1.2466971760538022e-02  -2.4107761464354144e-02 -7.4829399097635835e-02 -1.0219289183642859e-02  -2.5150871054094508e-02 -7.5067527647013937e-02 -1.1171385554581928e-02  -2.6587781206776632e-02 -7.1265886194404618e-02 -1.4054145636014878e-02  -2.3961024268525762e-02 -7.4322901228706217e-02 -1.2112575469761855e-02  -2.5037204955672829e-02 -7.4572941252053451e-02 -1.2984668632549054e-02  -2.9523844415117059e-02 -7.4150295294523119e-02 -1.2448059779575461e-02  -2.9853839113901524e-02 -7.2489223392801880e-02 -1.3272925868725699e-02  -3.0123807666240274e-02 -7.1174086472919854e-02 -1.4060226969446376e-02  -3.0347623046061593e-02 -7.0158768533033017e-02 -1.4860013302465332e-02  -3.0530485720937129e-02 -6.9396579773562006e-02 -1.5724895563944692e-02  -3.0676744655110617e-02 -6.8856611703898590e-02 -1.6696476768460939e-02  -3.0792220340786478e-02 -6.8522323446447791e-02 -1.7806810220159858e-02  -2.4906046907323606e-02 -7.7134469003430614e-02 -4.0307005936033851e-03  -2.5126218456609808e-02 -7.5556992882756038e-02 -5.5443252144644290e-03  -2.5310438046560885e-02 -7.4217677959513673e-02 -6.9304379972494490e-03  -2.5427074820798978e-02 -7.3145327276654654e-02 -8.3057716595844721e-03  -2.5480172013898111e-02 -7.2307332252438170e-02 -9.7277061029317977e-03  -2.5469443544812197e-02 -7.1675260763133991e-02 -1.1241219775939689e-02  -2.5392738995594973e-02 -7.1224495150419634e-02 -1.2892568373376051e-02  -2.5544704318278679e-02 -7.1935827567457825e-02 -8.2117679321120716e-03  -2.6058898966314550e-02 -7.0193642225911110e-02 -8.9434739206935426e-03  -2.6542869908529877e-02 -6.8759024576553973e-02 -9.6866748397944243e-03  -2.6935379767986687e-02 -6.7654859090832478e-02 -1.0469268064294575e-02  -2.7243770358110396e-02 -6.6835269033437700e-02 -1.1325397122186996e-02  -2.7465230997757644e-02 -6.6262300798290291e-02 -1.2280309608261156e-02  -2.7588566009030067e-02 -6.5909831972932084e-02 -1.3345731610197453e-02  -2.3299502474069193e-02 -9.2108388580736805e-02 5.8416954221712980e-03  -2.2725295623234103e-02 -9.1751872885915423e-02 4.0192186255529503e-03  -2.2152371883856964e-02 -9.1301650691553368e-02 2.4042165028257088e-03  -2.1044500196963686e-02 -9.0275228733592436e-02 -7.0424641495198830e-04  -2.0508854761619462e-02 -8.9764446356854530e-02 -2.3953543978589230e-03  -1.9983292546074709e-02 -8.9298675947199188e-02 -4.2731905523886839e-03  -3.3772619989401079e-02 -7.0001972848123123e-02 -2.2370757162984641e-02  -3.2544525535373826e-02 -7.2677994821063657e-02 -1.7848218737318837e-02  -3.2878999909610906e-02 -7.1051004595323250e-02 -1.8310926775414748e-02  -3.4233019102048921e-02 -6.8451755550396523e-02 -2.2070019286546699e-02  -3.3175988012379067e-02 -6.9760872132544643e-02 -1.8723960031399953e-02  -3.4626403774921932e-02 -6.7330973019774476e-02 -2.1872094405517531e-02  -3.3431039824192356e-02 -6.8786190655882942e-02 -1.9172776557648440e-02  -3.4980307020062003e-02 -6.6536022437782769e-02 -2.1779887111964522e-02  -3.3656447409944619e-02 -6.8079633234590542e-02 -1.9702432356803849e-02  -3.5306386045185371e-02 -6.6012491050182351e-02 -2.1798595836673561e-02  -3.3858831535577484e-02 -6.7605308398980768e-02 -2.0346654879822550e-02  -3.5609280621693398e-02 -6.5731137458243924e-02 -2.1935122691575545e-02  -3.4041139634816080e-02 -6.7343701263460815e-02 -2.1135740395159634e-02  -3.5878919531531731e-02 -6.5683019834666609e-02 -2.2197271907711605e-02  -2.1828588355815765e-02 -9.5156807041653454e-02 9.5603572480686579e-03  -2.1758920716864229e-02 -9.3366200619332596e-02 8.3240418398057830e-03  -2.1103875217339817e-02 -9.3028664510393225e-02 6.4391815926060081e-03  -2.1019351824313616e-02 -9.5056203807829906e-02 8.2068850197579337e-03  -2.0245258259984598e-02 -9.4712633428322535e-02 7.0507615090342705e-03  -2.0468670831207809e-02 -9.2601699107217550e-02 4.7829029856451