<?xml version="1.0"?>
<VTKFile type="UnstructuredGrid"  version="0.1"  >
<UnstructuredGrid>
<Piece  NumberOfPoints="940" NumberOfCells="4014">
<Points>
<DataArray  type="Float64"  NumberOfComponents="3"  format="ascii">10.67148675993447 2.402434172120587 1.208751121411892  10.62044236845561 2.323683532925819 1.269239820808821  10.53078476209601 2.407436116817831 1.23567568219138  10.52096067763968 2.377979732046999 1.188931482744341  10.60982289230341 2.294519477690885 1.221316873543751  10.66078910291796 2.372290511319467 1.160504814662716  10.51085815345799 2.348642086659649 1.142210279320395  10.59885168703613 2.265546912793556 1.173352853311585  10.64980829818322 2.342339135474888 1.112205897391002  10.50062894717021 2.319378899947556 1.095504073289149  10.58773785503568 2.236664923542127 1.125362723304882  10.63869673904075 2.312465828580775 1.063878134530448  10.49041614019084 2.29013243552929 1.048820762541213  10.57666521359546 2.207778008290602 1.07737564266738  10.62758324573967 2.282549718550291 1.015545195957139  10.48035966570796 2.260831575400526 1.002177839889396  10.56579703326701 2.178777451980714 1.029414301062325  10.61661466049561 2.252483857517392 0.9672320060504207  10.4706229217094 2.231343806305295 0.9556183350311036  10.55531887160552 2.149488490426003 0.9814929331569938  10.60597093175288 2.222103816380783 0.9189835251204295  10.6002594832166 2.455320186831697 1.190782151152545  10.59000858581944 2.425170004659607 1.143356043973823  10.57951402356078 2.395157593705665 1.095929166932069  10.56890760678457 2.365220056496541 1.048499275260181  10.55828923555736 2.335262061521043 1.001079785749988  10.54778188325225 2.305198423788065 0.9536889191842421  10.53754288822093 2.274911845679502 0.9063805889629898  10.56496865382172 2.92256245574689 0.8922283184538431  10.50360505767235 2.849512572768116 0.9425044546252619  10.4067058684388 2.957967669040133 0.8893879569724346  10.49640961741095 2.816773629371062 0.8898017686733544  10.55849271978229 2.890994330854562 0.8363684279898489  10.3996800991813 2.927724709697191 0.8329064556200249  10.48929364002885 2.783961100238999 0.8371300421342078  10.55216656245296 2.859385628168823 0.7804955418204643  10.39280688481705 2.897383600536008 0.776435372277454  10.48217624622544 2.751095235163836 0.7844885425496783  10.54584382645324 2.82772352419246 0.7246439033589372  10.38597579518506 2.867012597336809 0.7199845726733796  10.47500968854649 2.718187589242954 0.7318662750420475  10.53945877898703 2.79602454449733 0.6688206901979644  10.37909386297332 2.836625807466086 0.6635661525693652  10.46775856062894 2.685271539409608 0.6792417518293123  10.53294977628977 2.764318894152006 0.6130138298327922  10.37207474989733 2.806241018570995 0.6071701229124833  10.46033658542897 2.652426997848382 0.6265722280375664  10.5262057077465 2.732693773675694 0.5571726567948395  10.3648658183682 2.775951559315541 0.5506953645098178  11.69599999999894 2.326235838514499 1.109445344548114  11.58115272246739 2.31121092413513 1.11635937158023  11.57949777714012 2.435581021587023 1.07101222649718  11.57808580570014 2.410565549395213 0.9969245876924231  11.57890217526508 2.280766239342327 1.043793017935674  11.69599999999891 2.298174301307871 1.032505914971497  11.57667618645357 2.386364059752405 0.9222894371936083  11.5767189930372 2.251071976560531 0.970735474874234  11.69599999999888 2.271377917009197 0.9548359579404668  11.57516986433469 2.362262255789451 0.847386430576023  11.57453361680027 2.221506026272788 0.8974547542126813  11.69599999999884 2.244625284433965 0.8769849578976825  11.5736223414853 2.337829397082443 0.7724420907693211  11.57232005286488 2.191631033433839 0.8241495097691608  11.69599999999881 2.21736376407064 0.7991949265518142  11.57211331721245 2.312655657129508 0.6976364682096676  11.57018112153061 2.161113493545991 0.7508834207114585  11.69599999999877 2.189039778552326 0.7215703498214947  11.57096890781652 2.28634621779611 0.6230188454275843  11.56837003185546 2.129390928152394 0.6776979659660355  11.69599999999874 2.158982920896769 0.6442452919295534  11.22323081437661 2.868411418881021 0.9136505814810811  11.2106794218 2.764462106452654 0.9540312736773855  11.0939893769449 2.793411967804736 0.9348613147653421  11.09553565476017 2.765937266099147 0.8712062995297748  11.21280050997127 2.738214996902065 0.8880984193594258  11.22750933665045 2.843380824349909 0.8457735778342539  11.096916588244 2.738493508681874 0.8075516713720762  11.21467632411854 2.711973711231343 0.8221303867196958  11.23146348651558 2.818373662179135 0.777882484313566  11.09815644947539 2.710989337424174 0.7439045072248988  11.21636306768493 2.685649090334242 0.7561330388010569  11.23516824407709 2.793295044027779 0.7099805291675482  11.09926612671254 2.683348818276732 0.6802857150283208  11.2178977025439 2.659144464856725 0.6901267826979983  11.23868205238942 2.768046040884657 0.6420901271270827  11.10025412542435 2.655522893345925 0.6167376418910194  11.21932084821265 2.632369986745728 0.6241567087004017  11.2420410216293 2.742548336381549 0.574239416862487  11.10110898597045 2.627544846938278 0.5533180039633226  11.22064992855837 2.60531290736127 0.5582961230988277  11.24522896275321 2.716829302221371 0.5064430775608356  10.39865817542132 2.853141754370825 0.9541250458295938  10.288767635883 2.892065562236136 0.9489036976700261  10.28024138899963 2.857846209542998 0.8973696283498961  10.39048502348532 2.819599924640105 0.9026437621862914  10.2717667073324 2.823415408469801 0.8459376583240078  10.38236548694899 2.78592479554288 0.8512387008711664  10.26330773917715 2.788920520331355 0.7945535587318298  10.37425978362771 2.752206608302954 0.7998745025227496  10.25483132003006 2.754432790934284 0.7431841730042898  10.36612423260854 2.718474987740858 0.7485269031240461  10.24629728157444 2.719997148949221 0.6917758358724749  10.35792096777972 2.684772567342807 0.6971604941630425  10.23763136075483 2.685698054222073 0.640245221188892  10.34958077990796 2.651186763213641 0.6457182967837634  11.69599999999955 2.984877574157977 0.9024312083981301  11.5723743864594 2.980275274883606 0.9015967755291309  11.57694715838481 3.095894616725067 0.8690701070126814  11.57998150694754 3.076612766431273 0.7886554052536507  11.57506754736775 2.95787115681501 0.8237362487859217  11.69599999999956 2.96215081991526 0.8212746932312123  11.58223102115513 3.057020460095169 0.7078372483149621  11.57711389372295 2.935251384490709 0.7454959272157961  11.69599999999956 2.939092664733017 0.7397006992947921  11.58417152873516 3.03705708370383 0.6266586635554604  11.57889140153121 2.912425093749165 0.6668383901115966  11.69599999999957 2.915790360545579 0.6576364333279163  11.58601277079402 3.016846279388655 0.5451233228772366  11.58053747153344 2.889356998285524 0.5878375584584361  11.69599999999958 2.89222213315889 0.5750395936891519  11.5877371790921 2.996633313753852 0.4632857567952716  11.58200565295728 2.866019462436481 0.5087145614476533  11.69599999999959 2.868431238495066 0.4920633462357786  11.58840074793316 2.977437540684086 0.3813101343747796  11.58247439128513 2.84220328772541 0.4301470653352478  11.6959999999996 2.843375949394826 0.4098787767455813  11.48196638573573 2.221362611965246 1.16234705175448  11.46039843794533 2.334332891049154 1.114422486769611  11.45589283526948 2.306307839325286 1.044656832905402  11.47636795556673 2.186515202760023 1.094558478515655  11.47085384056106 2.151969978176468 1.02627212956688  11.45136090991393 2.278671259908861 0.9744199434121527  11.46551675400307 2.117376563205193 0.9578029864659704  11.44682830435432 2.25105973110427 0.9039553910006102  11.46035808755417 2.082550725405866 0.8892794642910297  11.44231019361813 2.223219444855626 0.8333757796597376  11.45539494649092 2.047298585664463 0.8207228730307355  11.43792105589807 2.194893166667841 0.7627496655879913  11.45089766020527 2.011324340409892 0.7520670021549166  11.43393781878388 2.165700949028829 0.6921085199463187  11.44177484684728 2.134171791121417 1.224336134451992  11.35397954416854 2.055688654879765 1.298265511165015  11.32205674069818 2.154023857098594 1.222022824441113  11.31285203421742 2.114177308485292 1.1622318632924  11.34753544151227 2.002138674320801 1.248688896117169  11.4330798014681 2.090283976900728 1.16384642037804  11.30343324937506 2.074440856862254 1.101908768789817  11.34107788199354 1.948470048541591 1.198714646285942  11.42427181226021 2.046435936778603 1.102685815530602  11.29423611071056 2.034567966902394 1.04136357134832  11.33487018276668 1.894605872785707 1.148611932250708  11.41571645212606 2.002397185985611 1.041307887371047  11.28538254897316 1.99442266213301 0.9807377487556311  11.32901548773711 1.840501187873724 1.098480120627111  11.40746995668312 1.958073203333551 0.9798629649214833  11.27695956913939 1.953886201931657 0.9201002832595508  11.32356016426388 1.786014796367966 1.048265922193724  11.39969008610909 1.913360057877839 0.9183825634377623  11.26897030922418 1.912862497939053 0.8594911470303508  11.31849692782392 1.731223033194754 0.9978673701063457  11.39261162989194 1.868173420293748 0.8567670848198512  11.45941127499868 2.447433618046142 1.07014218621507  11.45676280083017 2.421726380765719 0.999615740175262  11.45404757094956 2.396284867872017 0.9287555814032429  11.45123940930443 2.370892539984622 0.8576531667080003  11.4483784537419 2.345278966561331 0.7864244249527438  11.44558485274152 2.319158348173709 0.7151646958765985  11.44313208837153 2.292153601295024 0.6439705203311161  11.69599999999914 2.547892544261073 1.033873517553419  11.56389046707609 2.551202458685931 1.034429340310518  11.56298270410474 2.52683121308961 0.960781706414789  11.69599999999913 2.524225615024341 0.9562338424525969  11.56196815118918 2.502889291115817 0.8866200671510454  11.69599999999911 2.501760913860161 0.8777158307309971  11.56091695624998 2.479057426448625 0.812103209767957  11.69599999999909 2.479416150729729 0.7988638665327574  11.55984526292939 2.454982911264794 
[...]
<PointData  Vectors="f_16"> 
<DataArray  type="Float64"  Name="f_16"  NumberOfComponents="3" format="ascii">-6.2853961338207989e-02 -5.4932190850213981e-02 -6.2650417418866650e-02  -6.1300400630550013e-02 -5.6750546281170988e-02 -6.2296427012616826e-02  -6.0717511203043043e-02 -5.7081225913423059e-02 -6.2698958558000686e-02  -6.0555111093928339e-02 -5.6794084140202553e-02 -6.3105441938993603e-02  -6.1005884871742647e-02 -5.6805762277921279e-02 -6.2252818680556050e-02  -6.2621801075304212e-02 -5.4641703052768491e-02 -6.2920446918006606e-02  -6.0475469692761290e-02 -5.6182181216254852e-02 -6.3349987491259030e-02  -6.0861322501177852e-02 -5.6490775473352101e-02 -6.2140774744461488e-02  -6.2499975211144664e-02 -5.4002405697262376e-02 -6.3059655340319667e-02  -6.0438004305641044e-02 -5.5271551580052126e-02 -6.3450855436142206e-02  -6.0823680638654440e-02 -5.5904183307866520e-02 -6.1953139932760734e-02  -6.2455404867212537e-02 -5.3066265037151936e-02 -6.3088827784706772e-02  -6.0408244510445443e-02 -5.4113800654034247e-02 -6.3404403305380982e-02  -6.0808238851320584e-02 -5.5079351978994086e-02 -6.1651492500802846e-02  -6.2462795487194800e-02 -5.1894733619202403e-02 -6.2997343958266297e-02  -6.0393161592290842e-02 -5.2764337443874577e-02 -6.3212512093922299e-02  -6.0749167139921810e-02 -5.4099609046936774e-02 -6.1222130171236046e-02  -6.2493399419636518e-02 -5.0560259390244992e-02 -6.2770278482458142e-02  -6.0901338470646341e-02 -5.0788581567572898e-02 -6.2843399683245788e-02  -6.0951035268931600e-02 -5.2719271461731033e-02 -6.0626515235701728e-02  -6.3001124078551130e-02 -4.8664281691713530e-02 -6.2383175569913997e-02  -6.2186923063426394e-02 -5.5229956969687341e-02 -6.2503177942347013e-02  -6.2039617831947780e-02 -5.4683684944033868e-02 -6.3046733437934460e-02  -6.1946393077946117e-02 -5.3813363825682831e-02 -6.3420594618171164e-02  -6.1903530222506213e-02 -5.2657512987817755e-02 -6.3649358237415715e-02  -6.1905860168385056e-02 -5.1270467569024418e-02 -6.3737108076476701e-02  -6.2018512731548042e-02 -4.9649651404544151e-02 -6.3684035942326980e-02  -6.2626289947356681e-02 -4.7456172784111419e-02 -6.3468114919687860e-02  -6.0266566691814100e-02 -3.9176077852645846e-02 -5.0005537889100421e-02  -5.9862778637449460e-02 -4.2710926182345385e-02 -5.2149775342664406e-02  -5.7505281071495391e-02 -3.7512833636415485e-02 -4.6702924518519519e-02  -6.0259076171990264e-02 -3.9782274840501751e-02 -5.3497496650106391e-02  -6.0703538112028867e-02 -3.6026091260782253e-02 -5.1247368373788363e-02  -5.8020805424107737e-02 -3.4017070761644272e-02 -4.7833393749201182e-02  -6.0559541951809105e-02 -3.7004751912103701e-02 -5.4637129216973071e-02  -6.0939531291646441e-02 -3.3305512232624894e-02 -5.2341666803708400e-02  -5.8126172039578969e-02 -3.1251227144005335e-02 -4.8945630508981909e-02  -6.0747149370056389e-02 -3.4535092119198897e-02 -5.5717748632987327e-02  -6.1166272042247810e-02 -3.0925499447238845e-02 -5.3423905079218202e-02  -5.8485383822791330e-02 -2.8753989822171748e-02 -5.0069719906574335e-02  -6.1119879548992929e-02 -3.2121149330516220e-02 -5.6786064619219076e-02  -6.1654117406757636e-02 -2.8471108742609490e-02 -5.4492096714408904e-02  -5.9245970787791667e-02 -2.6236871344717447e-02 -5.1207430359263929e-02  -6.1744241858495211e-02 -2.9619694361070759e-02 -5.7841914700586507e-02  -6.2361055023329885e-02 -2.5858215797244247e-02 -5.5540708565264642e-02  -6.0148323333697441e-02 -2.3550586563710479e-02 -5.2364462710464577e-02  -6.2461629018968873e-02 -2.6960037727720439e-02 -5.8934611735464132e-02  -6.3147702447094028e-02 -2.3077276272698535e-02 -5.6608173784272388e-02  -6.1105880645294437e-02 -2.0708232583717366e-02 -5.3575790753660937e-02  -6.9241144930319215e-02 -4.6312345541339339e-02 -6.8652116550051670e-02  -6.9124582019252659e-02 -4.6236452013811824e-02 -6.6721602321518331e-02  -6.9463554193912272e-02 -4.6012777049016428e-02 -6.7357612139795797e-02  -7.0350370371411841e-02 -4.5273303890062164e-02 -6.7300023601169628e-02  -6.9742913922885758e-02 -4.6000050870084214e-02 -6.6275619105531314e-02  -7.0202313501099720e-02 -4.5962570952372141e-02 -6.8296995464186966e-02  -7.1460240571908196e-02 -4.4258186560176070e-02 -6.7204489838576756e-02  -7.0683907666751519e-02 -4.5388123575697097e-02 -6.5873459721167815e-02  -7.1478758805546161e-02 -4.5152237336002654e-02 -6.8184276212645861e-02  -7.2819754443729512e-02 -4.3057526614693482e-02 -6.7070130576611098e-02  -7.1870406739598477e-02 -4.4532878861282897e-02 -6.5550575767723759e-02  -7.3002952389613629e-02 -4.4137585691353738e-02 -6.8230715694780980e-02  -7.4430799675690523e-02 -4.1777417958919864e-02 -6.6909818220346889e-02  -7.3319147395322498e-02 -4.3628633958185066e-02 -6.5230785781861811e-02  -7.4812948607390226e-02 -4.3122828285595070e-02 -6.8284143634108424e-02  -7.6235255279408998e-02 -4.0500451928217281e-02 -6.6725395036828061e-02  -7.5105318014988445e-02 -4.2824542516526905e-02 -6.4816677508709689e-02  -7.7038735092516492e-02 -4.2291722417833591e-02 -6.8153943693917265e-02  -7.8149658850066542e-02 -3.9312501298630967e-02 -6.6517590973868460e-02  -7.7154501445574272e-02 -4.2165663988183562e-02 -6.4299992470924078e-02  -7.9661769400501362e-02 -4.1811814438425861e-02 -6.7807684935294391e-02  -6.9396451393423778e-02 -4.1954133268384763e-02 -5.6813030293084939e-02  -6.9516040879570765e-02 -4.3738595835652032e-02 -5.9585227382828419e-02  -6.8548828501297024e-02 -4.3053458937446346e-02 -5.8221974207958882e-02  -6.8668309231493904e-02 -4.0863249317163015e-02 -5.9054020451990118e-02  -6.9741579153034902e-02 -4.1745598268305886e-02 -6.0265535184252365e-02  -6.9669342881929164e-02 -3.9526180671753147e-02 -5.7580032232350420e-02  -6.8827437438735151e-02 -3.8551980666284624e-02 -5.9767087326675704e-02  -7.0012572568002487e-02 -3.9555492100009741e-02 -6.0864218083689955e-02  -6.9986970360812001e-02 -3.6933472170232358e-02 -5.8272281676706499e-02  -6.9042613142389603e-02 -3.6127762691963279e-02 -6.0385000220259250e-02  -7.0343067422661026e-02 -3.7224451101667444e-02 -6.1395593739482626e-02  -7.0310800198147214e-02 -3.4304271247890351e-02 -5.8923316439402469e-02  -6.9263390624692459e-02 -3.3728170365328970e-02 -6.0956485584350815e-02  -7.0727997422480302e-02 -3.4877808253216180e-02 -6.1885593668810503e-02  -7.0635843527037931e-02 -3.1729577820536217e-02 -5.9561033676488052e-02  -6.9623158827775061e-02 -3.1236621005740255e-02 -6.1489861207680137e-02  -7.1178534568043780e-02 -3.2493545140161013e-02 -6.2345207948574649e-02  -7.1048488816768743e-02 -2.9075339059657389e-02 -6.0185011770074237e-02  -7.0207979323593947e-02 -2.8526574543301986e-02 -6.1990969417053760e-02  -7.1810549021923339e-02 -2.9891525617000890e-02 -6.2768503491317892e-02  -7.1586886026330884e-02 -2.6210653952507369e-02 -6.0783462004743494e-02  -5.8047183951161201e-02 -4.2978540043464068e-02 -5.0892444180079710e-02  -5.5836019676076015e-02 -4.1667640115118594e-02 -4.7951420216744076e-02  -5.6565516310360490e-02 -3.8281512529900447e-02 -4.9388831600561574e-02  -5.8544675352657748e-02 -3.9926545743689618e-02 -5.2304549407276045e-02  -5.6879732793925872e-02 -3.5342426882568979e-02 -5.0708901933652704e-02  -5.8886571001694629e-02 -3.7071084548879599e-02 -5.3524646375652907e-02  -5.7152195114132880e-02 -3.2663790459006629e-02 -5.2031451899100044e-02  -5.9115140310333533e-02 -3.4484324490378700e-02 -5.4704340539771024e-02  -5.7702657444896374e-02 -3.0093840924727645e-02 -5.3349991467609229e-02  -5.9554201199270504e-02 -3.1974338378221834e-02 -5.5872115859356683e-02  -5.8533580965348324e-02 -2.7570630452574310e-02 -5.4686269083986626e-02  -6.0253358343644925e-02 -2.9478333476522421e-02 -5.7039197380427377e-02  -5.9438944891852967e-02 -2.4831885195606983e-02 -5.6114482250465329e-02  -6.1023609713486089e-02 -2.6807892381149938e-02 -5.8282592247815450e-02  -7.2033382760829545e-02 -4.1743153002162942e-02 -5.5174208999231353e-02  -7.1440217029473813e-02 -4.2025244602845999e-02 -5.4474298838128203e-02  -7.2050394361449999e-02 -3.9848685140536487e-02 -4.9464378261963225e-02  -7.2570753004149294e-02 -3.5990190147779426e-02 -5.0264545167386446e-02  -7.2301585719325059e-02 -3.8510992366178436e-02 -5.5357769444496975e-02  -7.3415121012125162e-02 -3.8389448561915625e-02 -5.6018450764194615e-02  -7.2845776161593781e-02 -3.3034802604624561e-02 -5.1038198101511750e-02  -7.3121874315569643e-02 -3.5570906377269715e-02 -5.6164407720722349e-02  -7.4393788652177828e-02 -3.5650110361366970e-02 -5.6811466695883085e-02  -7.2903088488271109e-02 -3.0285901665539666e-02 -5.1853130020125045e-02  -7.3609947131362999e-02 -3.2960517602354501e-02 -5.6994626887264956e-02  -7.4925492814421221e-02 -3.3294950048693359e-02 -5.7615311511751935e-02  -7.3068706300721098e-02 -2.7299642288075378e-02 -5.2665895120792255e-02  -7.4052166466287164e-02 -3.0296793842434399e-02 -5.7819745136846151e-02  -7.5452297889961828e-02 -3.0762892628735179e-02 -5.8440721403622206e-02  -7.3287581866467250e-02 -2.3962370071804750e-02 -5.3465730400064110e-02  -7.4543111581078125e-02 -2.7334652205543285e-02 -5.8627792851683957e-02  -7.6017636545619757e-02 -2.7821256272260949e-02 -5.9274995758594073e-02  -7.3500136059700724e-02 -2.0068350441294035e-02 -5.4207357707230445e-02  -7.5073034990295898e-02 -2.3902666268259432e-02 -5.9433439279993450e-02  -7.6556472675048698e-02 -2.4349808067084703e-02 -6.0168731441883040e-02  -6.8257892703160225e-02 -4.7045141146674262e-02 -6.3840237429762678e-02  -6.8959865865466749e-02 -4.6490623893052668e-02 -6.5258463050248031e-02  -6.9353027324144556e-02 -4.6157296151960833e-02 -6.4919363364974697e-02  -6.8503015370098272e-02 -4.6914167635130150e-02 -6.3023998122829550e-02  -6.9188187752324146e-02 -4.6499212872194169e-02 -6.2416654774780707e-02  -7.0087638539348074e-02 -4.5539549142522250e-02 -6.4557031438582296e-02  -7.0008723219266850e-02 -4.5858686304540028e-02 -6.1968059041404532e-02  -7.1045526798482986e-02 -4.4661924582275643e-02 -6.4200491695472026e-02  -7.1009934706018352e-02 -4.5193302025430857e-02 -6.1535530255208803e-02  -7.2207831296396213e-02 -4.3664544973024987e-02 -6.3848837762734353e-02  -7.2195419765111971e-02 -4.4654360866926049e-02 -6.1029974828150639e-02  -7.3581126880779599e-02 -4.2670075699128153e-02 -6.3458934313215906e-02  -7.3802467609877215e-02 -4.4218310348915005e-02 -6.0388263615816340e-02  -7.5172365475742964e-02 -4.1664825796710735e-02 -6.3005200316397295e-02  -6.6999542425153602e-02 -4.8450732216153002e-02 -6.1043448357364728e-02  -6.5102781559361569e-02 -5.1120943963229651e-02 -5.7200214002199740e-02  -6.6272194700432552e-02 -4.9276430463740931e-02 -6.0520054567779945e-02  -6.6267227213332780e-02 -4.8969401559214171e-02 -5.9477635775876843e-02  -6.4825260600764253e-02 -5.0147934269269508e-02 -5.6034428056410443e-02  -6.7008190875242304e-02 -4.8133041496064913e-02 -5.9804962866729545e-02  -6.6563897886845622e-02 -4.8511002534308567e-02 -5.8751970860363226e-02  -6.4656713442085331e-02 -4.9413800485747908e-02 -5.5382165079400469e-02  -6.7311250718248242e-02 -4.7658271192193104e-02 -5.9058194696508963e-02  -6.6975346962673557e-02 -4.7965400605380508e-02 -5.8257784721256457e-02  -6.4564729890527597e-02 -4.8812867623913625e-02 -5.4973474913707687e-02  -6.7689287817889424e-02 -4.7124834988422189e-02 -5.8570778723421590e-02  -6.7489024133040948e-02 -4.7454884391401816e-02 -5.7812111201194609e-02  -6.4521396095234509e-02 -4.8366749397601695e-02 -5.4646888257746405e-02  -6.8174073425250850e-02 -4.6662688061253448e-02 -5.8119849021179039e-02  -6.8087294647142263e-02 -4.7084597125815753e-02 -5.7302540570891819e-02  -6.4504594668321202e-02 -4.8123871084087652e-02 -5.4329180491813518e-02  -6.8781209985329744e-02 -4.6386155044165538e-02 -5.7598104918977246e-02  -6.8893931134170625e-02 -4.6832199716191014e-02 -5.6706642954989325e-02  -6.4439053809811520e-02 -4.8226094756168576e-02 -5.3970696197230182e-02  -6.9616188863480949e-02 -4.6292920760859238e-02 -5.6978040248376438e-02  -6.9492427606464957e-02 -4.6057761286727457e-02 -6.5704507328747525e-02  -7.0078796815081459e-02 -4.5336532816315708e-02 -6.5648630908513889e-02  -7.0869015805108293e-02 -4.4337737081588183e-02 -6.5548984749970216e-02  -7.1865104338653854e-02 -4.3134091324248981e-02 -6.5420374592854963e-02  -7.3057706937436878e-02 -4.1804066607347576e-02 -6.5257003952394671e-02  -7.4393425058181556e-02 -4.0402246091212977e-02 -6.5071019825195919e-02  -7.5830609831285797e-02 -3.8950454700220197e-02 -6.4853811034445819e-02  -6.9544687995474863e-02 -4.5998629863832498e-02 -6.8737792108313239e-02  -6.9740904502077317e-02 -4.5746942022492403e-02 -6.6453090238916629e-02  -7.0751569010935267e-02 -4.4528701386386302e-02 -6.6617217567835341e-02  -7.1050803146764291e-02 -4.4618100391731960e-02 -6.8944067457400934e-02  -7.1912369970257406e-02 -4.3106800216111497e-02 -6.6747501862905664e-02  -7.2700917400002674e-02 -4.3062357976193101e-02 -6.9123732044568897e-02  -7.3258856209467815e-02 -4.1537358846518498e-02 -6.6851014419209820e-02  -7.4539751688528194e-02 -4.1454036048483335e-02 -6.9278356050641768e-02  -7.4741171881118049e-02 -3.9894309070191571e-02 -6.6924272012576572e-02  -7.6489732364648511e-02 -3.9920204441021220e-02 -6.9408810914335234e-02  -7.6263290374685697e-02 -3.8249504754905989e-02 -6.6970206331497667e-02  -7.8493905099362438e-02 -3.8498291090361854e-02 -6.9522112209906992e-02  -7.7830362645975051e-02 -3.6557667371832019e-02 -6.6996338909917949e-02  -8.0588864484769762e-02 -3.7052063934050104e-02 -6.9620945087983541e-02  -6.8439372597695558e-02 -4.1192129859938392e-02 -5.5735708239168409e-02  -6.8625393418588365e-02 -3.8651701655427036e-02 -5.6572703560663504e-02  -6.8848576728229846e-02 -3.6000940030454891e-02 -5.7327154139257618e-02  -6.9046904911534701e-02 -3.3367348792307391e-02 -5.8008019719455725e-02  -6.9271849262756882e-02 -3.0766265402125681e-02 -5.8675730871595035e-02  -6.9649562892394254e-02 -2.8046473883232132e-02 -5.9322857305719685e-02  -7.0187634978166186e-02 -2.5124874308844133e-02 -5.9945469831214432e-02  -7.0930697378067134e-02 -3.9433500668634568e-02 -4.9754524015534277e-02  -7.1419385917529582e-02 -3.5776609787161219e-02 -5.0555317403072904e-02  -7.1666428463979942e-02 -3.2706116430615328e-02 -5.1277969822735775e-02  -7.1769819561365522e-02 -2.9836761687138266e-02 -5.2037377137054065e-02  -7.1962947459672216e-02 -2.6828869236327067e-02 -5.2783533973685355e-02  -7.2232690874174152e-02 -2.3566441507817761e-02 -5.3520521073046147e-02  -7.2511373572210824e-02 -1.9920791370228157e-02 -5.4254117159132170e-02  -7.0878694784822810e-02 -3.7355856567538960e-02 -4.5023366378331792e-02  -7.2251534167241172e-02 -3.7740884627503989e-02 -4.4098032239712967e-02  -7.1072945502265630e-02 -3.3476903446810306e-02 -4.5650881237808118e-02  -7.2313762915975147e-02 -3.3776053705172331e-02 -4.4740834387255318e-02  -7.0927574329202173e-02 -3.0384655107063938e-02 -4.6240015344720817e-02  -7.2034501516439725e-02 -3.0879605412452722e-02 -4.5417862378110331e-02  -7.0790890232895323e-02 -2.7368972412676332e-02 -4.6839428446768139e-02  -7.1810303167400127e-02 -2.7956724119884934e-02 -4.6116531123860854e-02  -7.0799509425853446e-02 -2.4171195386188754e-02 -4.7437636822083414e-02  -7.1732768317116474e-02 -2.4787623813393278e-02 -4.6816009297634027e-02  -7.0898626547488380e-02 -2.0704444023436318e-02 -4.8021267110044411e-02  -7.1725387811090377e-02 -2.1280607362897105e-02 -4.7495750476656870e-02  -5.6578041899263701e-02 -2.7257546237389959e-02 -4.7579931710424406e-02  -5.7497067404449063e-02 -2.4638538334598368e-02 -4.8767049125450601e-02  -5.8538688366571404e-02 -2.1858789379566621e-02 -4.9988736873165386e-02  -6.9317735437633560e-02 -4.6256328359309908e-02 -6.9379680444964842e-02  -7.0592613364992562e-02 -4.5370913796322916e-02 -6.9339528632170078e-02  -7.2099913597463677e-02 -4.4231973660999034e-02 -6.9368521148139919e-02  -7.3830117393991965e-02 -4.2945939605622235e-02 -6.9443072767302452e-02  -7.5836751246518591e-02 -4.1658714317911544e-02 -6.9483009032146090e-02  -7.8058539118044556e-02 -4.0520155802015956e-02 -6.9466870447276730e-02  -8.0531076564394635e-02 -3.9606830312815262e-02 -6.9352676874546604e-02  -5.9172391460398717e-02 -5.7794327744116115e-02 -6.2317636857159089e-02  -5.8144291389299482e-02 -5.6772067533828664e-02 -6.0782546914981653e-02  -5.9687391385442705e-02 -5.5992945873920036e-02 -6.1272628413770715e-02  -5.9740507108773079e-02 -5.4937496691822039e-02 -6.2271125097488160e-02  -5.8289130851880228e-02 -5.5626531081247696e-02 -6.1897602901278749e-02  -5.9152899725309953e-02 -5.7191244150976116e-02 -6.3065098209674444e-02  -5.9767591243925659e-02 -5.3641029838272687e-02 -6.3034703416554802e-02  -5.8379889581203832e-02 -5.4254248358325069e-02 -6.2757263387653153e-02  -5.9150382452911238e-02 -5.6301726261882595e-02 -6.3590355598327056e-02  -5.9796834555540322e-02 -5.2107341411018970e-02 -6.3610722614799997e-02  -5.8449982632595973e-02 -5.2646778854266905e-02 -6.3422039145858450e-02  -5.9152039794571162e-02 -5.5138412261481591e-02 -6.3931024551861684e-02  -5.9858195357176826e-02 -5.0361998041932081e-02 -6.4038398649681555e-02  -5.8544024880104586e-02 -5.0814900088859243e-02 -6.3915073222449909e-02  -5.9157294969940724e-02 -5.3730328071025291e-02 -6.4111547999629537e-02  -6.0241825287719306e-02 -4.8196243241402779e-02 -6.4278046574202344e-02  -5.9010214603888819e-02 -4.8498542230190955e-02 -6.4236016023304740e-02  -5.9282224434177466e-02 -5.2028908484294346e-02 -6.4104919844603869e-02  -6.0972160539902183e-02 -4.5553225108047206e-02 -6.4424183033675406e-02  -5.9810134934945205e-02 -4.5692762116726876e-02 -6.4470760968183966e-02  -5.9970448173865890e-02 -4.9657921628965408e-02 -6.3940862058117234e-02  -6.4318134888782158e-02 -5.2520027929461054e-02 -6.0881265422004845e-02  -6.2457230305027214e-02 -5.4267078411738418e-02 -5.8702421232980306e-02  -6.3320702191949713e-02 -5.4056097369480631e-02 -6.1249132564097544e-02  -6.3011088722823433e-02 -5.4123444230380229e-02 -6.0793200044209732e-02  -6.2211176956697894e-02 -5.4220027073315372e-02 -5.7768209963921992e-02  -6.4094490844266425e-02 -5.2460047528777143e-02 -6.0241886950724043e-02  -6.2908766208567876e-02 -5.3823547968570494e-02 -6.0400337828122354e-02  -6.2071149502283492e-02 -5.3931852059178484e-02 -5.7099019380242449e-02  -6.4072276960267183e-02 -5.2088551443712591e-02 -5.9716474402282116e-02  -6.2933284439091366e-02 -5.3276812036515429e-02 -6.0027229501498885e-02  -6.2048306253972133e-02 -5.3510023854223765e-02 -5.6563093126101097e-02  -6.4198718035236940e-02 -5.1527070272056115e-02 -5.9268560971188607e-02  -6.3032237752645465e-02 -5.2584172557525496e-02 -5.9608342698598285e-02  -6.2081811980340205e-02 -5.3084433917417718e-02 -5.6042899741877199e-02  -6.4403282443311852e-02 -5.0867444926519442e-02 -5.8816024584746107e-02  -6.3124929225841730e-02 -5.1812081177470104e-02 -5.9073517673982459e-02  -6.2121452379706732e-02 -5.2766337378549501e-02 -5.5430295009611406e-02  -6.4642251788817912e-02 -5.0175913420431990e-02 -5.8275730904127125e-02  -6.3313183663244066e-02 -5.0818173521313063e-02 -5.8395040001179468e-02  -6.2078323536488997e-02 -5.2695081022741432e-02 -5.4637609394477607e-02  -6.4945262821563599e-02 -4.9339506050227015e-02 -5.7579339826798033e-02  -6.9612073797832241e-02 -4.4997998357849955e-02 -6.1679184666270571e-02  -6.9300202151946780e-02 -4.6185672723968993e-02 -6.2987895109968148e-02  -6.8679778751431039e-02 -4.6507320149196202e-02 -6.2030479527402684e-02  -6.8672836085533567e-02 -4.5219075899289772e-02 -6.2528873146089001e-02  -6.9433718854667661e-02 -4.5067327779519516e-02 -6.3291907248460955e-02  -6.9818438657962875e-02 -4.3414599810051635e-02 -6.2181247660015301e-02  -6.8776604084814827e-02 -4.3669996765846417e-02 -6.2917384988823405e-02  -6.9687364723208772e-02 -4.3662264886362011e-02 -6.3523747009034889e-02  -7.0097867593543403e-02 -4.1573004063820175e-02 -6.2607774106738234e-02  -6.8952655750481581e-02 -4.1907570911097883e-02 -6.3219483200312607e-02  -7.0020161852985277e-02 -4.2016957209913518e-02 -6.3689693683607593e-02  -7.0443692536666644e-02 -3.9542379434012863e-02 -6.2969057964617270e-02  -6.9186358374805301e-02 -3.999610052