<?xml version="1.0"?>
<VTKFile type="UnstructuredGrid"  version="0.1"  >
<UnstructuredGrid>
<Piece  NumberOfPoints="940" NumberOfCells="3930">
<Points>
<DataArray  type="Float64"  NumberOfComponents="3"  format="ascii">10.27356651637048 4.319828743558679 2.358382440224674  10.21359279215627 4.32133676225956 2.265529879762787  10.19863396400362 4.283379111967577 2.393747582619989  10.17965640463456 4.33544421484231 2.40959428517251  10.19339958324865 4.375127959269911 2.279456885206564  10.25346234790946 4.372827333096942 2.373278870223571  10.16102662180116 4.387622928212991 2.425341209123668  10.17362081552194 4.428988149800396 2.293285616341496  10.23376555733843 4.425858756814476 2.388067151688395  10.14258223310031 4.439832418547776 2.441023188711301  10.15409504546793 4.482824691961875 2.307035605870816  10.21431058688513 4.478846362788022 2.402766694116114  10.12415903249523 4.491987974415847 2.456673014682255  10.13464316845184 4.536563084433662 2.320731376813001  10.19493216806104 4.531712953119619 2.417404646583659  10.10558733471603 4.54399922261197 2.472317325697901  10.11508387863723 4.590115813479801 2.334385059974007  10.17546535832004 4.584356688105304 2.431986848531248  10.08667228633378 4.595761974287822 2.488007199088726  10.09519517157963 4.643370066563987 2.347995268948226  10.15572468999148 4.636638942253356 2.446528384572166  10.25220847933876 4.338582036304633 1.513752386824482  10.14336783038785 4.331954493910048 1.621781776658025  10.26027845163239 4.366907562698741 1.629653349419529  10.24225241697515 4.431229062149934 1.616532640680742  10.12586420424736 4.396314604043849 1.609341889855246  10.23549912427386 4.403448301860593 1.495291700279745  10.22473875683696 4.495401663270222 1.603521896470008  10.1087946349225 4.460610207189747 1.596948778628717  10.21922561861116 4.468245919427577 1.476943745927814  10.20753699671294 4.559386217584593 1.590549520738273  10.09199153817808 4.524783279293167 1.584568404729446  10.20322677820336 4.532893703818655 1.458658292381387  10.19048052480231 4.62315116289204 1.577567612528617  10.07529515858642 4.588804190898318 1.572167383108527  10.10991051949587 4.284100320420548 2.266890137897748  10.0912908849652 4.3376395722662 2.280636492539363  10.07303356545648 4.39129259896701 2.294286455527059  10.05495829234815 4.444996229199461 2.307876120673078  10.03691113103212 4.498682833373786 2.32144141077225  10.01871024169592 4.552274814721025 2.335019624975713  10.00014937706115 4.605660742924165 2.348624549402193  9.053182690690637 4.120635273835838 2.301583666107857  8.950787244282248 4.130685335992926 2.242382029309165  8.980347016428576 4.091714841892723 2.375714233287916  8.975051382098368 4.146214383095935 2.394052919473817  8.945141437711648 4.188662905339514 2.257824435179705  9.049001200181372 4.176794122593442 2.318609787903795  8.939502003562557 4.246684332721401 2.273089322690033  9.044768207774073 4.233005068870511 2.335484016661751  8.969764813124435 4.200839531260796 2.412220277747406  9.04051514309017 4.289265172446819 2.352306441445103  8.933859403923124 4.304732436669251 2.288292243490713  8.96446901307967 4.255543930274995 2.430360493302131  9.036267266988869 4.345550985242078 2.369156334703782  8.928218024663467 4.362775307818239 2.303520648206931  8.95916172274411 4.310294816496466 2.448551439281559  9.032055921414846 4.401823008938865 2.386091624735961  8.922588280907171 4.42077107865004 2.318828769636111  8.953852461010056 4.365042626306881 2.466862349922159  9.027922123696797 4.45802939327677 2.403161818627037  8.916983929186062 4.478668329132883 2.334257728100245  8.948561937147277 4.419720070300956 2.48534643236031  9.294722774279311 4.208211191337699 1.749695975338284  9.190407154156381 4.200536118044696 1.825006859217305  9.285240252528464 4.206869009084635 1.851247351835382  9.280831517752192 4.272662041233631 1.852754116549778  9.185551913090061 4.267215324975228 1.825296868020789  9.290086918643807 4.275801904637608 1.747284514415678  9.285331017833512 4.343312399112141 1.744801438361978  9.180598734651177 4.333775504233076 1.825507043884235  9.27630094141462 4.338359058256072 1.85416665211464  9.280522914864758 4.410755380721286 1.742277979654409  9.175605530624175 4.400246767374348 1.825674759587194  9.271725251680358 4.404010216025244 1.855533716286833  9.170632614502116 4.466651929073227 1.825827040761286  9.275739584323119 4.478147498293914 1.739737766046788  9.267173117008047 4.469628847215612 1.856886260939346  9.165735165201403 4.532985118509784 1.825983294352904  9.271055473778855 4.545501093481485 1.737197091105098  9.262711946177758 4.535212246161577 1.858251015396938  9.266534787272223 4.612809041077213 1.734669720400547  9.16096704085907 4.599214993854307 1.826162043676963  9.258395468057536 4.6007430341741 1.859648579157984  10.11690508424155 4.297437889250502 1.502514823399019  10.10091210667655 4.362989191429574 1.485728011799619  10.08532106522823 4.42845203666774 1.469020483591491  9.2104481692815 4.197333567121889 1.679975920714307  9.205290287195359 4.266454280784588 1.674398354426392  9.200033266960022 4.335414225812032 1.668770025871608  9.194736875312525 4.404261915251386 1.663117209527739  9.18946234820427 4.473025476573187 1.657450556585163  9.184266957355049 4.541711843981845 1.651772322346439  9.179215840671857 4.610307509364881 1.646079968807679  9.659417655906273 4.171168869832805 2.27968469104405  9.520644181936355 4.144363148256677 2.318700928808441  9.632321392858941 4.13827429021689 2.374955343907686  9.625935841867722 4.190579217832098 2.391933125406688  9.515882443228129 4.198508539283403 2.334136016707644  9.651706425115792 4.22561859648059 2.293951031472103  9.61948789103797 4.243077685720881 2.408880381016572  9.511016287624972 4.252826930282509 2.349510716771683  9.643973522617371 4.280235791115261 2.308151339223454  9.61299493665445 4.295753565076653 2.425850116184705  9.506097216564289 4.307292029994179 2.364886800226506  9.636219818977638 4.335013954471694 2.322347800796494  9.606484364824892 4.348591075445714 2.442892288704626  9.501176846066349 4.36189370141967 2.380322562715947  9.628456240599043 4.389937915909071 2.336602704813784  9.59998313507201 4.401597142613383 2.460066643491204  9.496312731675852 4.416636074190164 2.395880575924383  9.620693654631079 4.445024451497357 2.350982705050542  9.593537501877188 4.45477796502884 2.477448919443453  9.491582907078898 4.471555659886097 2.411629997661823  9.612938183771709 4.500324460968164 2.365551401160177  10.36199123822777 4.612922889918035 2.110914844111477  10.31267571463381 4.609812322880755 2.003308432064483  10.19947648977254 4.555282657821633 2.086516917548409  10.179605389013 4.61312772583329 2.093753589187566  10.29582226958392 4.670719068513698 2.006556101143644  10.34539036255364 4.672898162653038 2.116647992009308  10.15967922934923 4.670717881360609 2.10093031553219  10.27888892431617 4.731302086407481 2.009658436502262  10.32872020444279 4.73252915011342 2.122240502360932  10.13935733755861 4.727937678169457 2.108022612713676  10.26155116703805 4.791506455427248 2.012623877279582  10.31170353444002 4.791699986438841 2.127696891517671  9.591897593978487 4.178331694211654 2.20008867992287  9.586058037507293 4.234650123585078 2.21276541079363  9.580139992620342 4.291120004488968 2.225358426768164  9.574181893486543 4.347716685034839 2.237925518915727  9.568217574943775 4.404423143200606 2.250527791673186  9.562286365599332 4.461239010180116 2.263224565064882  9.556478080775488 4.518217537996166 2.276101643280207  10.29978491783939 4.572663280066175 2.221866634813583  10.28003044058384 4.629275080213525 2.232903384752183  10.26020063420587 4.685586879506096 2.243824058059623  10.2399825069185 4.741488760569752 2.254633412014173  8.86907845556552 4.144008504589112 2.366283225463278  8.862097548574022 4.198945441365408 2.38477701218976  8.855124256747047 4.253973424973394 2.403238188377883  8.848127170408159 4.309041778139653 2.4217580462646  8.841081318936194 4.364091943626373 2.440403669549137  8.833976724751812 4.41904833798498 2.459225302540055  10.36495670393908 4.425425127587103 1.993461950860477  10.28143002458531 4.402502068016292 1.918303482798483  10.26073298611181 4.380728429977245 2.064421678572368  10.26190489733716 4.464062001682903 1.919436504498096  10.23979686676259 4.43903503721195 2.071864846042307  10.22432140902451 4.586646555702508 1.921660803141379  10.24295155740762 4.52545206894543 1.920562082521193  10.20583961404645 4.647601463751977 1.922724545046586  10.1872967887721 4.708261529917093 1.923688598210334  10.16834376424841 4.768554942544057 1.924554107283664  9.82988938536654 4.265518696504096 1.883244591082174  9.789196938333424 4.257904621376162 1.777621041032954  9.696650413065058 4.244299953148792 1.851032447883822  9.686520353310428 4.307572296726192 1.85355883090693  9.777381723782227 4.322087704745865 1.777301290293323  9.816644918395466 4.327435900718652 1.886192719448414  9.676441577017375 4.370908350777144 1.855965813188521  9.765687771588254 4.386300123759754 1.776874200709169  9.803567786825909 4.389418555965507 1.889029338621665  9.666399620967542 4.434294788835982 1.858310820774559  9.754078205108891 4.450525910666314 1.776383777678796  9.790591768362578 4.451442536522325 1.891802853906838  9.656377710066025 4.49772717266961 1.860643527054621  9.742497211510798 4.514759585807226 1.77587198777068  9.777642744598314 4.513489365569528 1.894560734943593  9.646350929809651 4.561237753178891 1.863016456943554  9.730888931668025 4.579013597001833 1.775372226122023  9.764634663635176 4.575554191705608 1.897349397356845  9.63626987133847 4.624873223613929 1.865496401863033  9.719217286054656 4.64333690163394 1.774927791634264  9.751468043842324 4.637675420494706 1.90022529256114  10.08574152578158 4.246880955859397 2.37269614378363  10.06743620007448 4.298270148193093 2.388489388878352  10.04946196173671 4.349855267406185 2.404197152980035  10.03163539401807 4.401534441334302 2.41987042145
[...]
<PointData  Vectors="f_16"> 
<DataArray  type="Float64"  Name="f_16"  NumberOfComponents="3" format="ascii">-6.3166448065848618e-02 1.3316432774821635e-01 2.3877332299494566e-02  -6.1425438149150982e-02 1.2880501986781351e-01 2.3602789463938529e-02  -6.3404193060777658e-02 1.3860574273016688e-01 2.5730438645126408e-02  -6.1136326897813169e-02 1.4078974962865434e-01 2.3187120163406787e-02  -5.9458427755486098e-02 1.3090169683179440e-01 1.9531605313592992e-02  -6.0945303501617434e-02 1.3527205324668101e-01 2.0844083345650948e-02  -5.9402342394993070e-02 1.4226919099820726e-01 2.0455232349175255e-02  -5.7857281079574413e-02 1.3239787010922019e-01 1.5524846725303618e-02  -5.9195198514524087e-02 1.3672800184747930e-01 1.7733122732461699e-02  -5.7595439502183411e-02 1.4329019597211684e-01 1.7593747791392195e-02  -5.6137427401866453e-02 1.3349117782140604e-01 1.1489747897283166e-02  -5.7339899105482692e-02 1.3774550457471901e-01 1.4532511327428955e-02  -5.5611058103282526e-02 1.4393627919157315e-01 1.4531778154788458e-02  -5.4281353026656209e-02 1.3426439615443356e-01 7.3083629147576790e-03  -5.5323870224085435e-02 1.3842596560324441e-01 1.1151716291274268e-02  -5.3422696440864052e-02 1.4428142783107600e-01 1.1180996144552022e-02  -5.2267110163559227e-02 1.3477815997869602e-01 2.8655692608050057e-03  -5.3121839290479013e-02 1.3884396823299758e-01 7.5089079695587584e-03  -5.1015855370383868e-02 1.4441751981811901e-01 7.5018510414348854e-03  -5.0050012289299166e-02 1.3504368947027826e-01 -1.9601808021800626e-03  -5.0698832913992735e-02 1.3901481625543310e-01 3.5536967484294858e-03  -4.9963344258197206e-02 4.5563967981573292e-02 1.2079007382579905e-02  -5.0283056038557448e-02 6.0084326357844040e-02 1.4898937270109061e-02  -5.1407284253918925e-02 5.9139238135799493e-02 1.2826712119002234e-02  -5.0070478138130634e-02 5.6381400301205073e-02 6.1990553859529894e-03  -4.9019334502950679e-02 5.7259598773415105e-02 8.0144983154437337e-03  -4.8773516038986164e-02 4.2027811333278625e-02 6.1425790378775410e-03  -4.8825630666491586e-02 5.4018214627944983e-02 -1.0340113390522431e-04  -4.7831140225538735e-02 5.4843743116990827e-02 1.4692401501813258e-03  -4.7682914939738696e-02 3.9110768969785624e-02 4.6356013323498084e-04  -4.7653568221412201e-02 5.1939748221926575e-02 -6.2999674756579046e-03  -4.6717648425679340e-02 5.2720150923401946e-02 -4.9611659730760651e-03  -4.6682228096852824e-02 3.6617952931370386e-02 -5.2067753506646903e-03  -4.6555254820146559e-02 5.0056697059405381e-02 -1.2570975262819195e-02  -4.5672468315365582e-02 5.0811014300874632e-02 -1.1471409438215381e-02  -6.0937043115774636e-02 1.3294018118934231e-01 2.5782309580235536e-02  -5.9010299489756300e-02 1.3507236886614277e-01 2.1641681419063998e-02  -5.7486496213388825e-02 1.3658602386338339e-01 1.7565622145589550e-02  -5.5861861747721585e-02 1.3768467514069152e-01 1.3441574575419108e-02  -5.4104328098521184e-02 1.3844334930635771e-01 9.1474394676614897e-03  -5.2188232910531915e-02 1.3891796374097812e-01 4.5597035935696683e-03  -5.0069130307026415e-02 1.3911700819249118e-01 -4.4602240028597046e-04  -4.2087511753596263e-02 1.5939948612622484e-01 3.2822490152232139e-02  -3.9607727082635789e-02 1.5338114702378558e-01 3.0944738313084901e-02  -4.0267759399376102e-02 1.6592882119226482e-01 3.3621071217177646e-02  -4.0533696192709696e-02 1.6829586223481638e-01 3.0137254639987000e-02  -3.9971033800313527e-02 1.5547282997342016e-01 2.5303260061897124e-02  -4.2186496623441753e-02 1.6173756591440908e-01 2.7995347891112334e-02  -4.0394141299213142e-02 1.5672706612490550e-01 1.9932440122295031e-02  -4.2423986031655071e-02 1.6320445686122240e-01 2.3387424854903079e-02  -4.1015559081038308e-02 1.6969122026783778e-01 2.6612793087163533e-02  -4.2593544401775353e-02 1.6399449102895322e-01 1.8739328019623816e-02  -4.0749915606262649e-02 1.5737682322317392e-01 1.4530755776143892e-02  -4.1411940416205037e-02 1.7036429923232901e-01 2.2963322630397725e-02  -4.2726306016326654e-02 1.6424517110139358e-01 1.3820469041971758e-02  -4.1048296043721594e-02 1.5755260485820524e-01 8.8815473520393578e-03  -4.1740946512724253e-02 1.7045119054989508e-01 1.8980191369863390e-02  -4.2845609606682017e-02 1.6408845670749839e-01 8.4444933859451482e-03  -4.1308611323819230e-02 1.5737247026388382e-01 2.8011197183155064e-03  -4.2027934035428816e-02 1.7007115699639672e-01 1.4473686190413931e-02  -4.2981025178845299e-02 1.6362732248850831e-01 2.4249790439630427e-03  -4.1568626502641488e-02 1.5697370957196199e-01 -3.8450911034791273e-03  -4.2301715551033341e-02 1.6937154226126175e-01 9.3127178415771533e-03  -4.2042349333235890e-02 8.7172887671579935e-02 2.3109717513290773e-02  -4.1374608799278630e-02 9.8601283429584671e-02 2.4187024717302344e-02  -4.3177263705516770e-02 1.0176067080019983e-01 2.4755215683752111e-02  -4.2712063793509329e-02 1.0095964579323481e-01 1.5839025697457508e-02  -4.1043722137052846e-02 9.7491394348978536e-02 1.5098699726613410e-02  -4.1570468817601042e-02 8.5440198187425043e-02 1.4087905673057373e-02  -4.1110078370474382e-02 8.3887485852840490e-02 5.6275311690494904e-03  -4.0705910209067185e-02 9.6415141659992695e-02 6.5850631935487295e-03  -4.2263526633476940e-02 1.0010733267142347e-01 7.4488255454081267e-03  -4.0665365520329316e-02 8.2469994798839832e-02 -2.6252638640575023e-03  -4.0378187086909115e-02 9.5352982717959250e-02 -1.7030784776407889e-03  -4.1827496670583969e-02 9.9227361563481983e-02 -7.2305700765293236e-04  -4.0062523512014905e-02 9.4289016547055238e-02 -1.0046010077360319e-02  -4.0229680149640075e-02 8.1147949013224072e-02 -1.0949699077129444e-02  -4.1397104316099435e-02 9.8308286978662215e-02 -8.9549553273476756e-03  -3.9746308776826299e-02 9.3208769906704958e-02 -1.8667013485513612e-02  -3.9789730466387799e-02 7.9889603062261866e-02 -1.9569601933125028e-02  -4.0969277373668414e-02 9.7352572051027098e-02 -1.7476929445345148e-02  -3.9336327730840705e-02 7.8674756938534998e-02 -2.8674586191885461e-02  -3.9419831296491306e-02 9.2097986245568933e-02 -2.7747860757036391e-02  -4.0535388634094546e-02 9.6361069909793901e-02 -2.6470291059712329e-02  -4.8619201903635931e-02 4.6011623708551608e-02 1.4490166877689545e-02  -4.7485311271976277e-02 4.2408351292119242e-02 8.2523120939327274e-03  -4.6463839783175795e-02 3.9478201550427097e-02 2.3160002507192469e-03  -4.0039977166907798e-02 7.7620966239285452e-02 2.2204267789155414e-02  -3.9630184216156938e-02 7.5194629929192625e-02 1.3196313326855585e-02  -3.9251674865368791e-02 7.3117527292907672e-02 4.7613648055576602e-03  -3.8888845552855558e-02 7.1306104953647351e-02 -3.4630128182370360e-03  -3.8535353253060657e-02 6.9678166027872843e-02 -1.1760354581901831e-02  -3.8180802724631181e-02 6.8179898119820601e-02 -2.0355297456971226e-02  -3.7813190592446887e-02 6.6780656081898218e-02 -2.9443532322842785e-02  -5.5672072649547322e-02 1.4874179537441817e-01 3.2549959170891658e-02  -5.3373008924145066e-02 1.5562135238034236e-01 3.3892989252658788e-02  -5.6502312408052639e-02 1.5748662412255110e-01 3.3953345254139865e-02  -5.4952467701085521e-02 1.5990732850012862e-01 3.0851516943038410e-02  -5.2251030931212937e-02 1.5793271602076597e-01 2.9662241237526754e-02  -5.4314604443558796e-02 1.5093968579420991e-01 2.7946842264219302e-02  -5.3792051288168004e-02 1.6154927529345117e-01 2.7697487811623119e-02  -5.1327790078940651e-02 1.5948591821177918e-01 2.5576707692531658e-02  -5.3187648113478141e-02 1.5244631628938424e-01 2.3509386311155837e-02  -5.2660963509230045e-02 1.6256467861173951e-01 2.4458662743134053e-02  -5.0424801530745765e-02 1.6041462259146311e-01 2.1426361673285179e-02  -5.2059419459077910e-02 1.5340795845680333e-01 1.9025462122134237e-02  -5.1503808303905788e-02 1.6303607291437222e-01 2.0971408131644578e-02  -4.9517601594316563e-02 1.6081679012134331e-01 1.7021457473433147e-02  -5.0902744772010698e-02 1.5390288432395169e-01 1.4309298505256959e-02  -5.0282184474768517e-02 1.6303047533536591e-01 1.7057914111975374e-02  -4.8588985214579862e-02 1.6077674526357155e-01 1.2181720818984035e-02  -4.9685388878757543e-02 1.5399972180173813e-01 9.1892344431066392e-03  -4.8974410053517520e-02 1.6263883208644239e-01 1.2499656684474968e-02  -4.7634880846006492e-02 1.6040372051325186e-01 6.7532381338645192e-03  -4.8368220148231181e-02 1.5380850435304619e-01 3.5292280871595015e-03  -5.3620425394203114e-02 1.0723753576339685e-01 -6.5650121830320709e-04  -5.2263817829066438e-02 9.7838968200143164e-02 -3.3454777915220128e-03  -5.3112568276429732e-02 1.1064697885581219e-01 1.2154713723136544e-03  -5.1392605074447789e-02 1.1088351149320198e-01 -4.4406806108582718e-03  -5.0537617797618013e-02 9.7549719442888108e-02 -9.2086144020852041e-03  -5.1719173277654885e-02 1.0716404806732646e-01 -5.9990979229512277e-03  -4.9593231477029265e-02 1.1097002930771531e-01 -1.0300705126113075e-02  -4.8764398284427961e-02 9.7143424841613257e-02 -1.5240742731919842e-02  -4.9741107458624492e-02 1.0694367049824854e-01 -1.1495274123745061e-02  -4.7692175862248637e-02 1.1091217012183752e-01 -1.6476166767972006e-02  -4.6944164713286302e-02 9.6644367194473599e-02 -2.1571436945557996e-02  -4.7666960384505082e-02 1.0657274180748132e-01 -1.7210169051506064e-02  -5.3335505535273359e-02 1.4234923842700145e-01 3.2061486259973404e-02  -5.2280256042913253e-02 1.4424199849640854e-01 2.6323405012102660e-02  -5.1302174351080296e-02 1.4557971763968530e-01 2.0855049023779253e-02  -5.0336491947238583e-02 1.4642915517139735e-01 1.5434401948727446e-02  -4.9358535316588986e-02 1.4686789502559111e-01 9.8448596824024862e-03  -4.8351593027584586e-02 1.4695992560228296e-01 3.8883510598006644e-03  -4.7301681470855617e-02 1.4670126987179100e-01 -2.6501174890164883e-03  -5.4820661233892350e-02 1.1993812876767762e-01 4.1740362164064898e-03  -5.2847956841788696e-02 1.2041600295335138e-01 -5.5846324386579554e-04  -5.0752038492187547e-02 1.2070852951231860e-01 -5.5052829414701503e-03  -4.8530615880253890e-02 1.2092137987442099e-01 -1.0726270197416588e-02  -3.8156359282527426e-02 1.6550927219157380e-01 2.8969764615228086e-02  -3.8921345058856999e-02 1.6692817137910057e-01 2.5190638737308799e-02  -3.9546853750860769e-02 1.6762655368147578e-01 2.1302081807024285e-02  -4.0083450839264984e-02 1.6775962334798611e-01 1.7099991888574397e-02  -4.0557270734549289e-02 1.6745874523024862e-01 1.2388737371016220e-02  -4.0977307400040942e-02 1.6686379143537056e-01 6.9676266183716345e-03  -5.7306992799012725e-02 9.7819161918320699e-02 1.4862621165997833e-02  -5.5616931769217705e-02 9.2220557139990000e-02 1.5190853250829932e-02  -5.7872806918210035e-02 1.0851668675702428e-01 1.8581590975068479e-02  -5.4065271002962996e-02 9.1966519343085973e-02 8.3800646745646815e-03  -5.6345404642845445e-02 1.0953189024906920e-01 1.2504595679483295e-02  -5.0992720189553711e-02 9.1261766186809590e-02 -4.2603721965646596e-03  -5.2533037645796983e-02 9.1657449865196194e-02 1.9818135713932728e-03  -4.9434169051457089e-02 9.0784330323071191e-02 -1.0544497688560032e-02  -4.7849286134321982e-02 9.0231557356787451e-02 -1.7021184634754580e-02  -4.6249740456864925e-02 8.9646770616341423e-02 -2.3802711643852236e-02  -5.1287246633592139e-02 9.9004878846757363e-02 2.3926766891540326e-02  -4.9059892625796180e-02 8.5875424301671346e-02 2.2875691051219817e-02  -4.9114338872098137e-02 9.7066162291655725e-02 2.4529603538664072e-02  -4.8191647743059188e-02 9.6552483656860991e-02 1.6257951423043582e-02  -4.8067805637810893e-02 8.4725820552945627e-02 1.4644304901141686e-02  -5.0204733329845153e-02 9.8743789103301463e-02 1.6020394705041754e-02  -4.7273068914285094e-02 9.6033649577594762e-02 8.4694158251637525e-03  -4.7090080643281386e-02 8.3691173098556587e-02 6.9026666294356200e-03  -4.9127306602808021e-02 9.8409438984100969e-02 8.5739167090533742e-03  -4.6354251296554370e-02 9.5472395829105702e-02 8.6083963430087795e-04  -4.6128303444637690e-02 8.2739717754559128e-02 -6.3433260759248515e-04  -4.8048138366277672e-02 9.8001872536865209e-02 1.3027257634942589e-03  -4.5438095969179138e-02 9.4868279723483148e-02 -6.8243049869685527e-03  -4.5178234752321217e-02 8.1842623044276933e-02 -8.2298443665230828e-03  -4.6962930743764959e-02 9.7522640522692994e-02 -6.0396841120337174e-03  -4.4525532548765817e-02 9.4226350545746906e-02 -1.4831218433249268e-02  -4.4242888488727102e-02 8.0979869300751725e-02 -1.6117222758481358e-02  -4.5874110624428879e-02 9.6978854339287088e-02 -1.3677721600174730e-02  -4.3624709229565337e-02 9.3577104927915128e-02 -2.3394573396300546e-02  -4.3338470172490491e-02 8.0138736074985242e-02 -2.4529063461300744e-02  -4.4789042093611765e-02 9.6403531382046048e-02 -2.1828672845613590e-02  -6.2581650618110912e-02 1.4186668702867256e-01 2.7740619243064826e-02  -6.0408252352636325e-02 1.4417675024585119e-01 2.4990345807250767e-02  -5.8781022687178448e-02 1.4580135447298159e-01 2.2069277404280864e-02  -5.7102536057161597e-02 1.4693873181765571e-01 1.9032836894007366e-02  -5.5275932155359850e-02 1.4767572844363785e-01 1.5787857364516864e-02  -5.3259129904903509e-02 1.4807556843643987e-01 1.2228801281160256e-02  -5.0992779048698172e-02 1.4822491786331396e-01 8.2610820229028926e-03  -5.1946571403905122e-02 1.1099936244056274e-01 2.6377831489716220e-02  -5.0926338018563909e-02 1.1146620234171985e-01 1.8740810786321335e-02  -4.9879130090874683e-02 1.1169013722150237e-01 1.1537440700216678e-02  -4.8819185662617406e-02 1.1171860798512975e-01 4.4929468979764296e-03  -4.7742655205516911e-02 1.1158444548061837e-01 -2.6356432282716945e-03  -4.6646188059473299e-02 1.1131278990683359e-01 -1.0067115303392203e-02  -4.5533690811056987e-02 1.1090389321793130e-01 -1.8013973532105557e-02  -3.8980897868448716e-02 1.7417514312803134e-01 3.2613870120690461e-02  -3.9672900376813820e-02 1.7543128885567599e-01 3.0595682100448326e-02  -4.0232101828777608e-02 1.7590801124594885e-01 2.8364587799798471e-02  -4.0705752347892289e-02 1.7573066043113400e-01 2.5765115536256961e-02  -4.1125330909075483e-02 1.7501759450724966e-01 2.2627225363069253e-02  -4.1498093476639658e-02 1.7388665670074602e-01 1.8755495688637040e-02  -4.8069120426613078e-02 1.6081946636926631e-01 3.4224157787800261e-02  -4.6609586209236012e-02 1.5229046085701636e-01 3.2393415546996769e-02  -4.4589258905956212e-02 1.5899080310821717e-01 3.3224749196758219e-02  -4.4441203956027436e-02 1.6133369835962091e-01 2.8374165283783226e-02  -4.6265179994594459e-02 1.5448361154762150e-01 2.6763833089096873e-02  -4.7531500306949796e-02 1.6318402739352728e-01 2.9906927533250690e-02  -4.4383136813920546e-02 1.6282317557952239e-01 2.3749586954220137e-02  -4.5933965644428802e-02 1.5592522445026868e-01 2.1427156243859071e-02  -4.7128273830975620e-02 1.6469039617357711e-01 2.5771711399160915e-02  -4.4298900882311899e-02 1.6363088689778610e-01 1.9085063897086064e-02  -4.5605758613612664e-02 1.5676104886538028e-01 1.6117985037614548e-02  -4.6717172829348716e-02 1.6550908871602027e-01 2.1566799441222435e-02  -4.4199201994431815e-02 1.6389678449500464e-01 1.4158713606255435e-02  -4.5276246521870775e-02 1.5710790835935484e-01 1.0596479080967081e-02  -4.6306815290539531e-02 1.6576633001235927e-01 1.7082447448223740e-02  -4.4099040539303351e-02 1.6373803213685681e-01 8.7746476156862815e-03  -4.4951015521963747e-02 1.5706727140934415e-01 4.6511683418168229e-03  -4.5902187404288620e-02 1.6556991096356408e-01 1.2130887590830447e-02  -4.4016457574233461e-02 1.6325051633952017e-01 2.7473184638795193e-03  -4.4645451719748333e-02 1.5672745537485244e-01 -1.9146936128619314e-03  -4.5511920770714739e-02 1.6500276889830251e-01 6.5518198539268116e-03  -4.6950938005834358e-02 7.7551666199075039e-02 2.2322350468010222e-02  -4.6061493193488567e-02 7.5798248514815467e-02 1.3967315424332209e-02  -4.5207616419078500e-02 7.4329674407504057e-02 6.1038143857088702e-03  -4.4374402354239229e-02 7.3051108009948726e-02 -1.5677375229366062e-03  -4.3561069520272798e-02 7.1907517016381095e-02 -9.3177245078941637e-03  -4.2774264260613995e-02 7.0865487331879431e-02 -1.7379563654865503e-02  -4.2040116364607097e-02 6.9922745451270113e-02 -2.5967650915097232e-02  -5.5956255550696318e-02 1.0100999105636459e-01 1.8270410891136561e-02  -5.4523198430943033e-02 1.0148870900125991e-01 1.1569022693790983e-02  -5.4762611923552661e-02 1.1021847733747205e-01 6.8052297620938302e-03  -5.3054932677388845e-02 1.0177778770854377e-01 5.2653649053388176e-03  -5.1549228167015071e-02 1.0190867212745212e-01 -8.9675893659299424e-04  -5.0001557912731691e-02 1.0190133029971174e-01 -7.1224186226207390e-03  -4.8408314389823459e-02 1.0177507548826571e-01 -1.3575168558667113e-02  -4.6775212279994108e-02 1.0160068927624716e-01 -2.0388041743422958e-02  -5.3541934442097580e-02 1.0930923168710846e-01 2.5037378757272827e-02  -5.2393706525469194e-02 1.0991738670232509e-01 1.7687254145037468e-02  -5.1231575864651886e-02 1.1028084461709456e-01 1.0776664246922677e-02  -5.0036257597553230e-02 1.1045813762516535e-01 4.0261992537434016e-03  -4.8811644715115877e-02 1.1047431038164340e-01 -2.8031647806710772e-03  -4.7554774283474377e-02 1.1035138913929460e-01 -9.9226125796484221e-03  -4.6256793175668026e-02 1.1009042176280026e-01 -1.7544734519115378e-02  -4.6454685538528093e-02 1.6857760164620031e-01 3.5163046031797346e-02  -4.6060827800567854e-02 1.7101698955608674e-01 3.2324299429931834e-02  -4.5858387913226564e-02 1.7247653939889426e-01 2.9449078667195604e-02  -4.5643985631354758e-02 1.7316521350387573e-01 2.6423273528713875e-02  -4.5416272791641288e-02 1.7321997340727280e-01 2.3061841371580197e-02  -4.5185683336440061e-02 1.7275568582897982e-01 1.9191786268742926e-02  -4.4968775460540393e-02 1.7189937216997805e-01 1.4656293254896643e-02  -5.4827465378627198e-02 1.2120162043741335e-01 2.6913598229459657e-02  -5.3647037684836266e-02 1.2241438955637216e-01 2.0237191867989061e-02  -5.2456426310627094e-02 1.2320511795074132e-01 1.3886606507401816e-02  -5.1227704381298686e-02 1.2368800518088045e-01 7.6321764632417211e-03  -4.9951346886430673e-02 1.2391592502138599e-01 1.2565837423399609e-03  -4.8616185756700576e-02 1.2393733451015712e-01 -5.4367107804146990e-03  -4.7226604432795707e-02 1.2382628176233459e-01 -1.2634285572717755e-02  -3.7300622268505494e-02 1.7320438352445983e-01 2.9483876882286125e-02  -3.8122400598213202e-02 1.7367911733017341e-01 2.7058202704842053e-02  -3.8833401631655828e-02 1.7352839699699982e-01 2.4279280898158787e-02  -3.9469559583900485e-02 1.7284677427100151e-01 2.0974292695362176e-02  -4.0043641904722316e-02 1.7172660019786196e-01 1.6959329325403762e-02  -4.6404879825628992e-02 8.5485136051418928e-02 2.3754297852376927e-02  -4.5591498440909109e-02 8.4096667709968903e-02 1.5136469714175640e-02  -4.4812936875462450e-02 8.2875615158119711e-02 7.0536341259624883e-03  -4.4049570154151667e-02 8.1766513305213687e-02 -8.1675522035756136e-04  -4.3299436635296611e-02 8.0734965302154474e-02 -8.7543576448939758e-03  -4.2561139422183564e-02 7.9763140646946062e-02 -1.7003846127017563e-02  -4.1829667601299102e-02 7.8855693091996901e-02 -2.5797037691120406e-02  -4.4312080310519593e-02 1.4539590475307537e-01 3.0446710459550209e-02  -4.4156622093240977e-02 1.4711696247549599e-01 2.3826288733918791e-02  -4.3983501864735049e-02 1.4819501961100290e-01 1.7588977839096468e-02  -4.3806898184220788e-02 1.4875429507665405e-01 1.1413092779730186e-02  -4.3625635582734919e-02 1.4889687693973555e-01 5.0516960903625573e-03  -4.3447669700669517e-02 1.4871889216576181e-01 -1.6925076986154168e-03  -4.3286178362296319e-02 1.4833294367325175e-01 -8.9683692487976356e-03  -4.3532435276487452e-02 1.1477516995869219e-01 2.5958574756535971e-02  -4.3135610280279672e-02 1.1477353165370657e-01 1.7362710792058984e-02  -4.2759379530952657e-02 1.1455170155929535e-01 9.2714090740357129e-03  -4.2390744798065462e-02 1.1414858643848598e-01 1.3692125319198086e-03  -4.2025686096296366e-02 1.1358854912009834e-01 -6.6117562131468620e-03  -4.1661236533759159e-02 1.1289787889782082e-01 -1.4897951179086740e-02  -4.1297597317808223e-02 1.1211500633515598e-01 -2.3684842883245533e-02  -4.1985693355078742e-02 1.4875183041225007e-01 3.0499744644736367e-02  -4.