<?xml version="1.0"?>
<VTKFile type="UnstructuredGrid"  version="0.1"  >
<UnstructuredGrid>
<Piece  NumberOfPoints="1002" NumberOfCells="4310">
<Points>
<DataArray  type="Float64"  NumberOfComponents="3"  format="ascii">1.892337479735448 1.495273367582169 3.728596863018169  1.772744288828603 1.492832285343288 3.704229928283142  1.778017148440774 1.616159383012292 3.794976779605778  1.78156530645815 1.53205539830367 3.654655157087501  1.768176152647275 1.581069983005865 3.847140640141763  1.883259836873325 1.455943846752686 3.77771680834004  1.763911585264281 1.453543821479261 3.753784636007834  1.758228467228452 1.545937517223314 3.89924781176141  1.874087038484532 1.416564712886495 3.826777318974161  1.75496782119761 1.414179217334198 3.803297823438608  1.748089727078415 1.510765052309123 3.951248098408018  1.86478491325236 1.377111642276211 3.875720277483898  1.745832398079939 1.374718285924049 3.852717602037177  0.6580122098531208 1.961284645424324 3.606435991699889  0.8055985578948363 1.930894253122196 3.610538102283274  0.8020182603725675 2.072998696393726 3.669724589372012  0.7953045074969912 2.049268548414763 3.732464854301522  0.7982521012427545 1.899681158498576 3.670208559048024  0.652132814998847 1.931476417993364 3.669085476632448  0.7892475936928129 2.025391483727518 3.795958215047644  0.7915319210827765 1.868297084025932 3.730503792251  0.6467375063008743 1.901479603838077 3.732334148748966  0.7830366788392649 2.001072504055779 3.860054392467814  0.7846336052752301 1.836458273656419 3.791383822389061  0.6410020214436524 1.870985823251541 3.79619450483689  0.7765068262839934 1.976408092526921 3.924730867133906  0.7774414434662157 1.804214075031198 3.852826308170526  0.6349277143578242 1.840081514532043 3.860724648215467  0.7695023964692378 1.951415720601223 3.989969304887814  0.769760739028128 1.771573177025171 3.914779659235798  0.6283558397348615 1.808722212934633 3.925927403939262  0.7618660407893464 1.926075178207392 4.055765072960201  0.7614313422217209 1.738617337134392 3.977204071924203  0.6211033618099808 1.776983526629696 3.991819543874644  1.667965920920965 1.60892425535863 3.527801121304857  1.79966335946516 1.610644184842764 3.555723774737396  1.679019004845544 1.72909023949139 3.619410243920931  1.669221531444094 1.694400850585809 3.672161771236719  1.790486064002196 1.571288311748821 3.605123937210708  1.659328671737286 1.570197930291633 3.578086285002567  1.651023870074509 1.531566795561273 3.628555447637629  1.659744162863374 1.659832375791766 3.725038692581363  1.642845337548708 1.492916276656645 3.679118983401483  1.650385440688589 1.625245662901424 3.777963210988962  1.634632930712988 1.454178406022973 3.729707767405121  1.641009866471719 1.590578105172188 3.83087934013241  1.626289591601494 1.415325485499094 3.780279145349398  1.631517826194264 1.555821772711231 3.883749354067678  1.617674587566173 1.376352366564167 3.830793754331213  1.621765366675889 1.521013845613207 3.936531507043039  0.6825478930820645 1.466060601852684 3.194194565502567  0.8057291250429108 1.525501717449775 3.292945317912633  0.6789860864368964 1.562162580650087 3.304075222249104  0.6713304010515864 1.513421056137507 3.352103179805605  0.7961937749918194 1.477248774704501 3.339444236141169  0.6731081704374737 1.413778907711354 3.238280228441699  0.6648348040654162 1.360760515479065 3.283048699476388  0.7876192395415281 1.428327408894728 3.38663185531048  0.6646129751220228 1.463970496707633 3.400851658865221  0.6566580568928158 1.306905234987894 3.328447405193906  0.7791145054960522 1.37875717246883 3.434302078528706  0.6578792190970786 1.413716465963097 3.450212198793793  0.6480904443889055 1.252221668242639 3.374330498022056  0.7703043907518872 1.328578490912131 3.482450747167127  0.6507655015528987 1.362764556301729 3.500102757023921  0.6387497691864086 1.196876664745192 3.42091336075663  0.7607918455834695 1.27780786558551 3.531255149261442  0.642968647764238 1.311128572809586 3.550762744720084  0.628409143045583 1.140846785602502 3.468299377731185  0.7503287826724888 1.226530463593771 3.580680533395266  0.6342499138522733 1.258778780035584 3.602343132625764  1.425105556599394 1.62278158996172 3.498753693035805  1.547327475397633 1.615850504281466 3.514007558377372  1.442561166169553 1.727690261396846 3.576050577815282  1.434583323235507 1.692119793016773 3.628872244737969  1.539215790909732 1.577377984842238 3.564997661338969  1.4170188298896 1.583985982401916 3.54974723113447  1.427096591977022 1.656595490411165 3.681974980337259  1.531518562853761 1.538966973196585 3.616218298541144  1.409410114900811 1.54520808366808 3.601021443062664  1.419748637795297 1.620974533443676 3.735248376992034  1.523945546756556 1.500484625978381 3.667580415352782  1.401919220174882 1.506302540880413 3.652501749718534  1.41234023014922 1.585215913292547 3.7886345858573  1.516320348410046 1.46188322517728 3.719020871947576  1.394354933461572 1.467236129387999 3.704124449076514  1.404704518225223 1.549300487361132 3.842083097218768  1.508505172793349 1.42314991063806 3.770492477183867  1.386550850080161 1.428001780947683 3.755841426269924  1.396675133094676 1.51321868720125 3.895544503768298  1.500364273789779 1.384293565114833 3.821950097121329  1.378347630673027 1.388602559068326 3.807580605783226  0.903453195854894 1.870252745912929 3.591147247727263  0.9304803128243403 1.787769058743288 3.5387939055494  1.015802258101413 1.860230851286973 3.605908954774296  1.008001707514334 1.827415786744127 3.662596483241518  0.9220380728211685 1.749947938765359 3.592389963727995  0.8948103356710748 1.836538615681872 3.6479644829426  1.000834186180497 1.79446545734753 3.719850090062716  0.9142984317013341 1.711872293451045 3.646712083933754  0.8867604189098178 1.802546878746523 3.705503901348215  0.9065727920789811 1.673382182698233 3.70150480395982  0.8786579340232974 1.768162884075631 3.763535803944081  0.9936427876431497 1.761151955821908 3.777591878502087  0.8985889099167963 1.634463539864901 3.75673678990527  0.8702877476063988 1.733395537961586 3.82203000238269  0.9862083010531137 1.727500044977937 3.835699792630257  0.8901464211865902 1.595113028321363 3.812345218027225  0.8614536244408297 1.698228643378211 3.880958812292742  0.978326853871519 1.693528617912586 3.894114370694052  0.8809937582154679 1.555295619371897 3.868258460383515  0.8518702032603731 1.662601791872503 3.940274973399695  0.9698452401367047 1.659245244974965 3.952770128959706  1.808027181181352 1.721416207852052 3.63843455153719  1.79781140513665 1.686234596564078 3.690560490231414  1.787861144154638 1.651191815535856 3.742767371044132  0.9083565773695566 1.595893732391511 3.381923043939459  0.7865266575207387 1.643406420845184 3.39845285309294  0.7785593133711768 1.599348650844602 3.448600484280347  0.8993991317993209 1.552307199313998 3.431348632603417  0.8912510859337263 1.508310538242162 3.481438597773006  0.7714399511611758 1.554675906354896 3.499621074007224  0.8832057772668562 1.463765049612719 3.53200750091594  0.7643855844202834 1.509350512103374 3.551183518461412  0.8749095562908062 1.418655896063208 3.583129491240072  0.7570829989150111 1.463382021014411 3.603256317768713  0.749185218590352 1.417028228758348 3.655786583190076  0.8660123815251184 1.373097720569854 3.634727346681172  0.740417248360478 1.370148155891106 3.708906032502593  0.8562180778694681 1.327019578978238 3.686932054705654  1.55693203205864 1.737546209675752 3.602436835697856  1.548260700372472 1.70274458523074 3.655479280797568  1.539981466775645 1.668023775166812 3.708725709314527  1.531833515807662 1.633261619607932 3.76207200461436  1.523640953953677 1.598394830305139 3.815461309096245  1.515274729618382 1.563413745744929 3.868851481435035  1.506593687906299 1.528307234694445 3.922178632777205  0.67248298843372 1.867880544619464 3.552669061146452  0.6816924970117 1.745020585507371 3.468611463032123  0.8061721114907127 1.827856416612384 3.545318189743901  0.7981455511454072 1.791000862886799 3.60076180338738  0.6757019319703846 1.703893628714358 3.523287277551987  0.6661135105777937 1.831575922564542 3.610835785765038  0.6603630654449538 1.794902939944944 3.669739626881301  0.6704753845643612 1.662261253547199 3.578750027634758  0.790741815270989 1.753713744000408 3.657160332112701  0.6652382812891101 1.620034105076983 3.634763144126854  0.6544787708973216 1.757660784831659 3.729316309152508  0.7833271735267462 1.715955685873095 3.714114142348163  0.6596946531331765 1.577207094015899 3.691356036474685  0.6483243547383126 1.719903048636707 3.789531732081368  0.775603128141934 1.677718341387878 3.771595697845838  0.6416489716771734 1.681705438310675 3.850371064220644  0.6535976899771897 1.533715476647946 3.748762225788989  0.767398475584409 1.639038686430465 3.829541138573296  0.6342112002111837 1.642903052209485 3.911908697374312  0.6466984108145184 1.489642507796104 3.807093730317541  0.7584067768144185 1.59979757096492 3.88802734395211  1.878206540707698 1.940821012499648 4.109506593088258  1.758083480504961 1.821985354642752 4.044967106785983  1.760181660041033 1.992100466978806 4.114216184822787  1.767382546822385 2.01175114444319 4.054410417978999  1.76710360809445 1.846616509820631 3.987410595711067  1.869108372301542 1.92089526023533 4.168498703300465  1.748847091018487 1.797401382223948 4.102427003712767  1.752734188254392 1.972519965374399 4.173942080602661  1.857432584413866 2.436603060476882 4.146574127152221  1.736379384064801 2.272242137296996 4.112912392445376  1.725952806457154 2.439447443878321 4.132559595151617  1.743265411002057 2.282548187349581 4.050567116809557  1.733071496979075 2.443422984066263 4.069305714971517  1.852334479515418 2.432895829798645 4.209765933430901  1.729392341856811 2.261925953584085 4.175214485258747  1.718708527440928 2.435473016558617 4.19579344850621  1.84699769629842 2.429304481441946 4.27290571694067  1.722143108247927 2.251709595416315 4.237485461858997  1.711215915733858 2.43156718850652 4.25899082503993  1.874840159176183 2.1
[...]
<PointData  Vectors="f_16"> 
<DataArray  type="Float64"  Name="f_16"  NumberOfComponents="3" format="ascii">3.4740700726617717e-02 1.2765578068712983e-02 -1.8415678816024593e-03  3.6448382591650987e-02 1.4349089862787448e-02 -3.5955723219938921e-03  3.8178044378679915e-02 1.7030049187025057e-02 -9.3585538859093534e-04  3.7429638928109278e-02 1.3822723861510984e-02 -2.8047156385087963e-03  3.7847310627900858e-02 1.7246238943786647e-02 -1.6269837268501255e-03  3.4149026434920814e-02 1.3345831723720588e-02 -2.3902303582191324e-03  3.5728444812460583e-02 1.4803896389082357e-02 -4.2905809690104288e-03  3.7466718959595226e-02 1.7458713221042643e-02 -2.1565046802493244e-03  3.3557182033872951e-02 1.4077363237437007e-02 -2.7285874766383826e-03  3.5043943022235485e-02 1.5407163861136757e-02 -4.7897057250369645e-03  3.6993271627410944e-02 1.7627292572201744e-02 -2.4742411653963614e-03  3.2905923948733144e-02 1.4923371007359873e-02 -2.8483534564129310e-03  3.4325187972506659e-02 1.6130383996106539e-02 -5.0794442771063637e-03  5.7565946582295746e-02 3.6663802442999126e-02 -2.8165068091064708e-04  5.5601853780666073e-02 3.4281307480259073e-02 -3.3886037737478162e-04  5.6650865477522933e-02 3.4971706305434926e-02 6.3750160809478360e-03  5.5700939188010119e-02 3.3870058595957903e-02 5.2440379584674894e-03  5.4542551689033950e-02 3.3424717726177944e-02 -1.9032524995841881e-03  5.6488209626396432e-02 3.5557376523772347e-02 -1.7952106661791099e-03  5.5042077059956472e-02 3.2429857499707879e-02 4.1087596333478534e-03  5.3779355702439934e-02 3.2230458632733751e-02 -3.4703060932641536e-03  5.5695810171008345e-02 3.4137583604829810e-02 -3.3185991193913620e-03  5.4462369331533179e-02 3.0841658615087596e-02 2.9375090111469003e-03  5.3181623908072406e-02 3.0865680715869426e-02 -5.0322940718434961e-03  5.5028164726349617e-02 3.2568403352277030e-02 -4.8658161606987471e-03  5.3876814607287264e-02 2.9135946764254222e-02 1.7447953296076180e-03  5.2577614463664969e-02 2.9472126036846919e-02 -6.5287561995983553e-03  5.4359263472176206e-02 3.0928789240633213e-02 -6.3785147944048137e-03  5.3316023265299557e-02 2.7323004628430406e-02 5.7041438802002908e-04  5.1985316784558921e-02 2.7965378514975190e-02 -7.9630096753884206e-03  5.3724943286605105e-02 2.9162202783837542e-02 -7.8504551427501720e-03  5.2880323740634658e-02 2.5400454325667732e-02 -6.1264701914258554e-04  5.1440421868142079e-02 2.6273109874940623e-02 -9.3265881616289431e-03  5.3192119541624130e-02 2.7220489090022042e-02 -9.2946890994068526e-03  4.2606008553840564e-02 1.4510565867878565e-02 -2.8076033359924648e-03  4.0632988585217994e-02 1.1890872178660495e-02 -1.2206494811629054e-03  4.3248988924060802e-02 1.7324117702498820e-02 7.2164139084979608e-04  4.1698409488718585e-02 1.8156635272289789e-02 -3.0341163597401186e-04  3.8877224961039708e-02 1.3010800240214676e-02 -1.9965136580741721e-03  4.0828695135031255e-02 1.5371621541089928e-02 -3.7726227781851363e-03  3.9367631827622762e-02 1.5982992063807738e-02 -4.7371166393614843e-03  4.0644150609623328e-02 1.8620188802281373e-02 -1.2931781631046943e-03  3.8325750328893141e-02 1.6326899446917380e-02 -5.6782830584725351e-03  4.0091268095270936e-02 1.8726161791139981e-02 -2.2439511564044719e-03  3.7502855183655440e-02 1.6633804856080774e-02 -6.5091550075533893e-03  3.9696027976266424e-02 1.8799201280153822e-02 -3.0651919158171548e-03  3.6736445819811329e-02 1.7077224611345442e-02 -7.1619005170939160e-03  3.9271851390524096e-02 1.8871588339398351e-02 -3.7228488953099004e-03  3.5981061770050650e-02 1.7632161450065957e-02 -7.6234646615925220e-03  3.8774619577408451e-02 1.8880525312645825e-02 -4.1714203959431484e-03  5.4537235431741070e-02 3.2770579038287687e-02 -2.8003308584192137e-02  5.3001859055091825e-02 3.1113666208514450e-02 -2.1577809305940440e-02  5.5024560402771962e-02 3.4073898653533691e-02 -2.1824196415787835e-02  5.3447973943800221e-02 3.4239771315615078e-02 -2.4020656459411625e-02  5.1456110082695010e-02 3.1446278418855639e-02 -2.3693694481826615e-02  5.2846973583150936e-02 3.3523946330727861e-02 -3.0049563608067854e-02  5.1042561418988878e-02 3.4148526740069921e-02 -3.1753144541754284e-02  4.9866806484587731e-02 3.1672342578564085e-02 -2.5542151234604210e-02  5.1828486079934517e-02 3.4275984398394688e-02 -2.5980439481185821e-02  4.9153661009151015e-02 3.4587247539377877e-02 -3.3234018956462635e-02  4.8252934313549579e-02 3.1759846714515517e-02 -2.7193631757203275e-02  5.0175716919072660e-02 3.4175996333545899e-02 -2.7767578573456936e-02  4.7204501036971110e-02 3.4806466528987633e-02 -3.4590483662152234e-02  4.6608732883192554e-02 3.1681314374387884e-02 -2.8720298214774745e-02  4.8504032534473419e-02 3.3914561373380982e-02 -2.9434763586519003e-02  4.5211421346588447e-02 3.4777238452099277e-02 -3.5904247480930157e-02  4.4913336087882373e-02 3.1422580498429116e-02 -3.0180458917709471e-02  4.6825381307454797e-02 3.3474398640654317e-02 -3.1027268924320978e-02  4.3218553799521282e-02 3.4466318181648067e-02 -3.7269286973844955e-02  4.3346658092538883e-02 3.1077219290549067e-02 -3.1553428239729293e-02  4.5294600121189660e-02 3.2939185090335721e-02 -3.2559543138766606e-02  4.5883005712136479e-02 1.9972348498357731e-02 -5.7980186933425226e-03  4.4268321163948028e-02 1.7253825814975809e-02 -4.2203294795592743e-03  4.6493075073300388e-02 2.1443163953375647e-02 -1.9474284162751773e-03  4.4985993692670409e-02 2.1842931983099199e-02 -3.1845749949590855e-03  4.2537209738584845e-02 1.7885034788555156e-02 -5.3554431288406834e-03  4.4242832378143256e-02 2.0382475756311611e-02 -7.0913041024886960e-03  4.3857207200697482e-02 2.1947175375647911e-02 -4.4049329494451894e-03  4.1134079090160772e-02 1.8283563926118233e-02 -6.4621198655116204e-03  4.2892937351253740e-02 2.0587748846545281e-02 -8.3522352891764653e-03  4.3140162066512208e-02 2.1744040114403940e-02 -5.5746101698352672e-03  4.0087377300778333e-02 1.8449956800020539e-02 -7.5364083768921430e-03  4.1829513114414268e-02 2.0594528410831193e-02 -9.5626271423523077e-03  4.2560622266623160e-02 2.1554900085198191e-02 -6.6112262035003758e-03  3.9201677226379877e-02 1.8609065504678515e-02 -8.4702560376119576e-03  4.0881078786836486e-02 2.0607471471771308e-02 -1.0618457771077403e-02  4.2025923048042556e-02 2.1413271981374136e-02 -7.4886155355891378e-03  3.8399059489620128e-02 1.8873805108213723e-02 -9.2299109927586713e-03  4.0013866035235351e-02 2.0711200979890841e-02 -1.1502388500012383e-02  4.1489918483007919e-02 2.1228043769431916e-02 -8.1869377693806599e-03  3.7655428459056887e-02 1.9257705343431932e-02 -9.8032887642672244e-03  3.9226405829755569e-02 2.0899285901727228e-02 -1.2220500414633115e-02  5.3987451793732252e-02 3.2383666179843368e-02 -2.2860255988925784e-03  5.3143056273791615e-02 3.1335994440556868e-02 -5.9872652330456178e-03  5.2479367581654092e-02 3.0453661986102418e-02 -1.4994530687424269e-03  5.1358484645299997e-02 3.0012927000039772e-02 -3.0387814410248563e-03  5.1922594502202692e-02 3.0992337272753780e-02 -7.7767753464552782e-03  5.2878175422646695e-02 3.1802305947008981e-02 -3.9379216662305443e-03  5.0608709138119178e-02 2.9173424499670118e-02 -4.5640705379050208e-03  5.0970124220146025e-02 3.0319010645035699e-02 -9.5699813790922177e-03  5.2085395396974210e-02 3.0862794888858250e-02 -5.5908648874905742e-03  5.0175712254360509e-02 2.9473500315613053e-02 -1.1294826928956076e-02  5.1473618796241814e-02 2.9755053264675976e-02 -7.2185320737386312e-03  5.0044731361896196e-02 2.8183045822432525e-02 -6.0439131971151382e-03  4.9407936607800303e-02 2.8638687972654429e-02 -1.2865308403151733e-02  5.0868908912150464e-02 2.8644047757479401e-02 -8.7329011811482209e-03  4.9490792069752487e-02 2.7189108799857545e-02 -7.4124700658106946e-03  4.8698209424663179e-02 2.7789927074475421e-02 -1.4304583647172121e-02  5.0279034083013097e-02 2.7454992235888771e-02 -1.0151989754338536e-02  4.8933011192696246e-02 2.6099611841739701e-02 -8.6848593798435052e-03  4.8029713310070665e-02 2.6879011645618428e-02 -1.5622177546872233e-02  4.9684563862595989e-02 2.6104942515390400e-02 -1.1465916450831922e-02  4.8347619072017220e-02 2.4822343862742010e-02 -9.8653882034589850e-03  4.1230456835171299e-02 1.5011750696499682e-02 1.6701998716441792e-03  3.9699975435080616e-02 1.6067964069481376e-02 7.6937478599880171e-04  3.8666889423596487e-02 1.6754866644444897e-02 -1.0600997559301388e-04  5.2094317311919304e-02 2.9897266270658019e-02 -1.5697219432086344e-02  5.4003427439379477e-02 3.2709538180799740e-02 -1.5270021204165984e-02  5.2638857831729141e-02 3.2549635803576234e-02 -1.7398728629213146e-02  5.0688963012929321e-02 2.9921031659702009e-02 -1.7712161810885318e-02  4.9320612635079697e-02 2.9852984054106007e-02 -1.9527514967046390e-02  5.1320846297468810e-02 3.2273571086137771e-02 -1.9388517968395535e-02  4.7969223327094190e-02 2.9667658916490511e-02 -2.1182371748578094e-02  5.0006844842632750e-02 3.1871690004430325e-02 -2.1219085906980299e-02  4.6615912562718978e-02 2.9364478797741789e-02 -2.2706179286451241e-02  4.8693292514042474e-02 3.1357741826338395e-02 -2.2917446709266449e-02  4.7483512891506471e-02 3.0792472755206957e-02 -2.4482880544113308e-02  4.5340917502492181e-02 2.9001227707905922e-02 -2.4116026098327546e-02  4.6405583382180302e-02 3.0200828555592391e-02 -2.5931422782652858e-02  4.4193165819767517e-02 2.8629250467521638e-02 -2.5410301955365932e-02  4.5048892995962209e-02 1.9578771115825396e-02 -2.9091442571864754e-04  4.3508689435439805e-02 2.0188709181492501e-02 -1.4166007977682890e-03  4.2430827916249712e-02 2.0437141620401014e-02 -2.5231119095658447e-03  4.1812011343674238e-02 2.0362706791383675e-02 -3.5852054665918478e-03  4.1343886208371615e-02 2.0284755627538852e-02 -4.5129874955737248e-03  4.0879687051271964e-02 2.0212730801442515e-02 -5.2805380079265158e-03  4.0345490371933725e-02 2.0058152685063620e-02 -5.8649718000509457e-03  5.6852461637110122e-02 3.6206574187067013e-02 -4.9380894759462786e-03  5.5931713639658799e-02 3.5465207276115962e-02 -1.1299890702160885e-02  5.4970394135928149e-02 3.3767784869869699e-02 -5.5106115357913474e-03  5.3793853683993649e-02 3.3205348644866406e-02 -7.3446098514357997e-03  5.4620890530148333e-02 3.4938935280116636e-02 -1.3399465879093672e-02  5.5680048207360291e-02 3.5364790659708552e-02 -6.7996692895583057e-03  5.4737304805523544e-02 3.4213855162590200e-02 -8.6718485081985833e-03  5.3497753460819163e-02 3.4163708052726685e-02 -1.5450595274475478e-02  5.2858839591891131e-02 3.2309382932406587e-02 -9.1986599621677184e-03  5.2397160081952894e-02 3.3284158456026426e-02 -1.7363734521331050e-02  5.3937826760112030e-02 3.2898300461640717e-02 -1.0531346373520803e-02  5.2080979960457137e-02 3.1240474561604416e-02 -1.1002183491740907e-02  5.1334461825831235e-02 3.2331549272075197e-02 -1.9150786208486550e-02  5.3148499582221190e-02 3.1568277193407768e-02 -1.2276902499626815e-02  5.1324848946779689e-02 3.0174703104948370e-02 -1.2665371255149101e-02  5.2420603164581366e-02 3.0160990433605896e-02 -1.3934114021402776e-02  5.0377981333173200e-02 3.1327715922496210e-02 -2.0824912765567177e-02  5.0621130308752441e-02 2.9060492318759738e-02 -1.4222979990858668e-02  5.1771023350731853e-02 2.8591723338346690e-02 -1.5538052908727203e-02  4.9555228968833617e-02 3.0223619196791125e-02 -2.2383623277759425e-02  4.9973381504092050e-02 2.7836972858842127e-02 -1.5692748950318674e-02  3.9691985612110098e-02 1.7621693207758526e-02 9.4566296708183655e-03  4.0480162980769084e-02 1.8615841162016339e-02 5.0299366680991260e-03  4.1532673381347918e-02 1.8606145588975481e-02 1.0584122782915909e-02  4.1954037894798651e-02 1.9950253601250769e-02 1.1113353643997702e-02  4.0990689373123695e-02 1.9616812577246172e-02 5.6099923565593145e-03  3.9351836047387997e-02 1.6328857982640152e-02 9.0449446654880718e-03  3.9940047825227649e-02 1.7425203426495037e-02 4.5325064365819342e-03  4.1228337942975680e-02 1.7227749044462649e-02 1.0083272746801899e-02  4.3081873250937396e-02 2.2081977611328536e-02 2.4425951132774765e-02  4.3689002582239053e-02 2.1633044197321111e-02 1.9594563159061735e-02  4.4686785274133826e-02 2.3158509958914213e-02 2.4446413738839049e-02  4.4011303119022072e-02 2.3013031238325939e-02 1.9932282013055046e-02  4.4952638541079920e-02 2.4520803445645833e-02 2.4576513687119318e-02  4.2970976824938958e-02 2.0734573129642265e-02 2.4318923944753237e-02  4.3469386874037216e-02 2.0264717533434555e-02 1.9254228870432613e-02  4.4545628593787467e-02 2.1819412457561464e-02 2.4321735402985080e-02  4.3016763584852014e-02 1.9383288819284059e-02 2.4218657824562537e-02  4.3401269267369723e-02 1.8889446260191775e-02 1.8917433338685667e-02  4.4559345293864377e-02 2.0474469004874266e-02 2.4202556671655665e-02  4.0887012697557491e-02 1.8205289189895720e-02 1.5044314710190337e-02  4.0729906436548058e-02 1.6809851167808879e-02 1.4673341363728613e-02  4.1800904380748488e-02 1.9194932964677929e-02 1.9445178683032343e-02  4.1746723177097794e-02 1.7809592405720616e-02 1.9130085385464752e-02  5.7697813614143924e-02 3.8152017705986009e-02 -1.9597188968520359e-02  5.5967600483813426e-02 3.5647579977453568e-02 -1.7460982027038333e-02  5.7598197791555519e-02 3.7997447190569453e-02 -1.3157983937705248e-02  5.6192733016322098e-02 3.7319544819254431e-02 -1.5492872427083557e-02  5.4534231363133574e-02 3.5418140406317480e-02 -1.9771805309270737e-02  5.6113360322397561e-02 3.7882543561954952e-02 -2.2048728339760727e-02  5.4951989279806900e-02 3.6447348842698117e-02 -1.7721633201107843e-02  5.3096070972188124e-02 3.5054590920798247e-02 -2.1891757075808874e-02  5.4506737493084580e-02 3.7488166512197392e-02 -2.4299753357876239e-02  5.3700241317699279e-02 3.5484545167648637e-02 -1.9804669298627873e-02  5.1642167018541546e-02 3.4565600639572099e-02 -2.3859579872525089e-02  5.2875068057311729e-02 3.6977074878597957e-02 -2.6383028104642384e-02  5.2491001219170969e-02 3.4442579237709478e-02 -2.1778495142240634e-02  5.0190219207496854e-02 3.3947392132652236e-02 -2.5706031962981570e-02  5.1240326164174718e-02 3.6327172814844509e-02 -2.8344317400467597e-02  5.1397901867850544e-02 3.3314519351449697e-02 -2.3659190859270436e-02  4.8818291674478348e-02 3.3236561913272192e-02 -2.7448443566372861e-02  4.9662533432370523e-02 3.5536495634074579e-02 -3.0230873494038031e-02  5.0466677859911907e-02 3.2074101651396056e-02 -2.5434483569975158e-02  4.7626580818454792e-02 3.2474733956529812e-02 -2.9091128951399575e-02  4.8294168797976558e-02 3.4683067483661900e-02 -3.2057012720653019e-02  4.1380950693256861e-02 1.1306673842522376e-02 -1.6178219367755767e-02  4.0444394698124823e-02 8.7285630023365129e-03 -9.9675573484549040e-03  4.2117281309879621e-02 1.2452008237340400e-02 -1.2587941802223768e-02  3.9993552522155883e-02 1.3077810156057967e-02 -1.3923424620639380e-02  3.8263189789346223e-02 9.3646438865055085e-03 -1.1100005047968410e-02  3.9146223658158119e-02 1.2211826412598933e-02 -1.7660282124960628e-02  3.6231484611342443e-02 1.0018158102433511e-02 -1.2086639855989329e-02  3.7020169351399734e-02 1.3073395004132765e-02 -1.8788519753096273e-02  3.8017209409490112e-02 1.3690617110266531e-02 -1.5046404333861049e-02  3.4272859891020781e-02 1.0642648609778314e-02 -1.2969573838770992e-02  3.4930870725286334e-02 1.3827378065198482e-02 -1.9719865604675729e-02  3.6104827318443257e-02 1.4246921550431842e-02 -1.6023705778091365e-02  3.2323503353382681e-02 1.1204507911857974e-02 -1.3799125527247179e-02  3.2801208648922379e-02 1.4439932697893777e-02 -2.0564384290789297e-02  3.4190370910022638e-02 1.4716688146990784e-02 -1.6920506882394212e-02  3.0304874477365174e-02 1.1688741247299518e-02 -1.4637597431277355e-02  3.0568593351558974e-02 1.4881540798278220e-02 -2.1408697848453867e-02  3.2204405910707681e-02 1.5080585721316653e-02 -1.7810648630878841e-02  2.8365275560733278e-02 1.2234664921321305e-02 -1.5475232973878202e-02  3.0257684672760559e-02 1.5460473716762171e-02 -1.8678967885482563e-02  4.7057200160653789e-02 2.1964200048339478e-02 -1.1321585430171822e-02  4.5479687722756526e-02 1.9104140684101340e-02 -9.2301192475249851e-03  4.7573617541751337e-02 2.2843512971875785e-02 -6.5126220932463863e-03  4.6062690375191645e-02 2.3082649481334871e-02 -7.9203714675216089e-03  4.3779678734213810e-02 1.9498663240883590e-02 -1.0638373144338209e-02  4.5477654473149040e-02 2.2219558417334771e-02 -1.2930674081167774e-02  4.4796826856978472e-02 2.3095647899749439e-02 -9.3066947934830908e-03  4.2294930579847199e-02 1.9745952648114240e-02 -1.1952530879934625e-02  4.4018072163147834e-02 2.2384079567810387e-02 -1.4393348643575589e-02  4.3790457421727415e-02 2.2918016736134906e-02 -1.0631309184211134e-02  4.0894914457271579e-02 1.9905237571435887e-02 -1.3154317605520006e-02  4.2616679922973646e-02 2.2465775074710589e-02 -1.5712358183851912e-02  4.2885092803708336e-02 2.2751450092962922e-02 -1.1786308918390522e-02  3.9572730256565748e-02 2.0038566551828556e-02 -1.4232419699481687e-02  4.1255023718671409e-02 2.2480687283795844e-02 -1.6905692702968111e-02  4.2067789075273872e-02 2.2657099693651442e-02 -1.2776438289606064e-02  3.8369803459523531e-02 2.0237029957637591e-02 -1.5176410096912668e-02  4.0002264914785438e-02 2.2543729345870140e-02 -1.7962917993488089e-02  4.1330387777469488e-02 2.2627618305321919e-02 -1.3592254046628699e-02  3.7254051525959696e-02 2.0551846528607563e-02 -1.5962171228642807e-02  3.8858575018625843e-02 2.2691108324812640e-02 -1.8872287761984678e-02  3.3156218430391113e-02 9.0216504578628197e-03 -3.6179831173061244e-03  3.1961534225907827e-02 9.7169279560694495e-03 -4.1965372795400042e-03  3.0876615584562669e-02 1.0604240874708234e-02 -4.6246512094140291e-03  2.9826155222168974e-02 1.1746247231156956e-02 -4.8710203739711268e-03  5.7004082053705052e-02 3.6828161956564923e-02 -2.4535157285551851e-02  5.5284937147364342e-02 3.7045563756741048e-02 -2.6874714205741789e-02  5.3470046485222612e-02 3.7121619712895550e-02 -2.8940534662812281e-02  5.1611841618108528e-02 3.7055437980664088e-02 -3.0824938104593708e-02  4.9729291159788178e-02 3.6813271485508538e-02 -3.2590602397199721e-02  4.7832333406891976e-02 3.6360427404625084e-02 -3.4303608894461560e-02  4.6042917192023927e-02 3.5744076370873838e-02 -3.6002691803888702e-02  4.3418801594081319e-02 2.0958408122535084e-02 8.5610547294474402e-03  4.2889689114646738e-02 1.9620580692383486e-02 7.9071153578876164e-03  4.2497209058038943e-02 1.8255500624510309e-02 7.3020086017805234e-03  4.7278666491509545e-02 2.8979031041285571e-02 2.4028570773699479e-02  4.5124192424019056e-02 2.6544286685488198e-02 2.0952359532461450e-02  4.5989243509909579e-02 2.8505692714999784e-02 2.5006348580167700e-02  4.6991740992382298e-02 2.7891440646006911e-02 2.3784383124501748e-02  4.4809900807314978e-02 2.5777778469444502e-02 2.0597598049037602e-02  4.5766864138517147e-02 2.7265638258989741e-02 2.4842611498466612e-02  4.6538855585163089e-02 2.6491331863310590e-02 2.3570730709741687e-02  4.4414324274951192e-02 2.4427321607723495e-02 2.0262001779605663e-02  4.5299721391461011e-02 2.5906389155460615e-02 2.4708960157084063e-02  4.6134647159859057e-02 2.5087471155687394e-02 2.3359325909036055e-02  4.5806238771560932e-02 2.3707257592115859e-02 2.3147905401041918e-02  4.5598712498930244e-02 2.2352006426650604e-02 2.2940785947720164e-02  4.5550594969644476e-02 2.0992320580957822e-02 2.2738408996118408e-02  5.2137281512309418e-02 3.0021684086324166e-02 -1.0705662031936044e-02  5.0822247950989899e-02 2.9866902831607620e-02 -1.2593132598238405e-02  4.9695973090314989e-02 2.9518038795977468e-02 -1.4411885295190899e-02  4.8600602776859791e-02 2.9032463868336637e-02 -1.6109166871314726e-02  4.7560290318869450e-02 2.8505183554943376e-02 -1.7650160540248757e-02  4.6602990941354228e-02 2.7973420108366173e-02 -1.9048643142191835e-02  4.5749461742648330e-02 2.7436735317385493e-02 -2.0302567120430527e-02  5.8109146560962867e-02 3.8153129554314207e-02 -7.6646713640195234e-03  5.6834917210750631e-02 3.7200236428851244e-02 -9.6596320862480378e-03  5.5800394739055598e-02 3.5968231985125707e-02 -1.1676727856536416e-02  5.4832599622528386e-02 3.4636849346000260e-02 -1.36180699094