<?xml version="1.0"?>
<VTKFile type="UnstructuredGrid"  version="0.1"  >
<UnstructuredGrid>
<Piece  NumberOfPoints="957" NumberOfCells="4065">
<Points>
<DataArray  type="Float64"  NumberOfComponents="3"  format="ascii">3.043337470832685 3.893618346309415 2.516291880899538  3.171609049366181 3.87286483450106 2.490000571147053  3.087798057669787 3.917798524558844 2.390938770672379  3.100068746045136 3.986679719396641 2.406217108565277  3.189780426668619 3.937017967640141 2.512142779613798  3.058048653443291 3.959331837489706 2.535455499325632  3.072629858494173 4.025016123243442 2.554580916281363  3.207731134543272 4.00123690506112 2.534209508750396  3.11222365165228 4.055480385464032 2.421455740326946  3.087126577165476 4.090655244845169 2.57367948018021  3.225597639964185 4.065490386986919 2.556268225717969  3.124294686886377 4.124235852928926 2.436668903568791  3.101595944389625 4.156252966510735 2.592770270060065  3.243470314686859 4.129735858119296 2.578342823125424  3.136328223147776 4.192948788633448 2.451869455965109  3.148360327494768 4.261610757842181 2.467062592527846  3.261412337820681 4.193932759584754 2.600438559553552  3.116076457221233 4.221786456845985 2.611855269395502  3.160416617749657 4.330196412968883 2.482263537373534  3.279469054816594 4.258040411934458 2.622554988535147  3.130607439357192 4.287250560798807 2.630930292895758  2.84484057281759 3.883302610757409 1.417791590697213  2.962801942149008 3.909921285352783 1.500148120422462  2.953389082321891 3.85185893576661 1.359735449164441  2.959171783424984 3.926401429032143 1.321370357601274  2.968447746223973 3.987958802619286 1.473545423592708  2.84941513470772 3.959594218084547 1.385481614695927  2.854055145285535 4.03585764948037 1.353216851474268  2.97414925049575 4.065932658645056 1.446992721008866  2.965014391448857 4.000885257872757 1.283082843530934  2.858729192586292 4.11207999337672 1.320966008385811  2.979865646867853 4.143847175019324 1.420459349549184  2.97087965412462 4.075317846600126 1.24480226589905  2.863385810602272 4.188266319099243 1.28871139089611  2.985561335130149 4.221714070366069 1.39392998275468  2.976731368284527 4.149702130978914 1.206519961929826  2.867984940713338 4.264415520523269 1.256445627412893  2.991205945318364 4.299530499159883 1.367398011659721  2.982539413873081 4.224038353191673 1.168226396800125  2.872476795220495 4.340521981420987 1.22414197041561  2.99674461700831 4.37727787191493 1.340829888874677  2.988241322681104 4.298309033719353 1.129900897969816  2.415496698209911 3.978765562570008 1.614341330471688  2.398680058404701 4.003260424359119 1.757805539415065  2.525476660868341 3.987489221245567 1.716882274147504  2.532099561818627 4.063477344871993 1.705150954460259  2.406127577013462 4.077961162981383 1.74703079316369  2.422017179463774 4.054381667232915 1.596346527236592  2.538676906071279 4.139461626135249 1.693460057342382  2.41348707188387 4.152645806826512 1.736305738422641  2.428472378064098 4.129999211725467 1.578390950432533  2.545220038527195 4.215423158122945 1.681785852230832  2.420783334760751 4.22729710622944 1.72560012765237  2.434877897926245 4.205601633835453 1.560446309844156  2.551731052423547 4.2913571109378 1.670103693190745  2.428046503811087 4.301909833181452 1.714884052508647  2.441252470861249 4.281182636020658 1.542486848108856  2.558204519847453 4.367274079183931 1.658387168746991  2.435305256556608 4.376490024725643 1.704129541174972  2.44761431382495 4.356751826946055 1.524486944407695  2.564641734074663 4.443205098148505 1.646604836038597  2.442581026184136 4.451059385679192 1.693306405075739  2.453966414004886 4.432322165533386 1.506424254347919  2.853165369381441 3.937830702911942 1.561331494545815  2.857466638957343 4.01620937781802 1.539231266046828  2.86184284532017 4.094538069734263 1.5171735104903  2.866229848615792 4.172830949023171 1.495131354696916  2.870593634842177 4.251086105992298 1.473090602853354  2.874899578541553 4.329305704004459 1.451041825013243  2.879080296033925 4.407479437435927 1.428946289737187  2.864564592805471 3.983786077582186 1.962525380141928  2.981070972564694 3.971069817371417 1.848813711037325  2.868097409021487 3.976153565168493 1.803897990011077  2.872579490647001 4.054011886579885 1.796879267626464  2.986856388489704 4.048938602775813 1.844600467288868  2.869773036284994 4.05969424015738 1.960926186363981  2.875001402701627 4.135540089211154 1.959358535289073  2.992658443659546 4.126711699389924 1.840412353500269  2.877104305606198 4.131799146549015 1.789901319012361  2.998448521594462 4.204418010764718 1.836238685922174  2.880221433032035 4.211312613575131 1.957805703971461  2.881627978460566 4.209528662885406 1.782940260044779  2.885404874456313 4.287033672488752 1.956254772900098  3.004208830699988 4.282058435997408 1.832070972203836  2.886121056579593 4.287209968958924 1.775982217067293  2.89052843969836 4.362701347499975 1.954688223384395  3.00992466052021 4.359645646229322 1.827899591176827  2.890555840855737 4.364844100106271 1.769017634670078  2.895548290436364 4.438316547485576 1.953066875891606  3.015539341101328 4.437162143963235 1.82367626934011  2.89486612054244 4.442433205258567 1.76199107574657  2.283021603990135 3.96096962292933 1.513887819470633  2.272035887914794 4.000913156606151 1.663724800412715  2.279737738146166 4.07525372963166 1.647825388261515  2.290302763375482 4.035269360474468 1.489849900776532  2.287315344563661 4.149583988162409 1.631977199321231  2.297482426833231 4.109576160337097 1.465846752726537  2.294816697914024 4.223876015947027 1.616146997615975  2.304595630964064 4.183865634928198 1.441855162550786  2.302285841541003 4.298124469841355 1.600305260459891  2.311678423194969 4.258127686284997 1.417847594311979  2.309760770825546 4.372334199873141 1.584426149333631  2.318763340897528 4.332366364685004 1.393799225435426  2.317283206911457 4.446521033020494 1.568482632695256  2.325886357374689 4.406598595105878 1.369686141480405  2.475566177083965 4.039705060255256 1.12007318044595  2.373384382157022 4.090997259126061 1.211247484201313  2.349153549584867 4.009149288340264 1.047201584865732  2.365940739387356 4.018535855599923 1.247190493252704  2.467569608094986 3.968697153074189 1.161801299301182  2.358397118795423 4.078505882131672 1.002865352459856  2.483548210839036 4.11070933674795 1.078315699116387  2.380808771087093 4.163447860095596 1.175279775537687  2.367670728694656 4.147853123660965 0.9584796901399619  2.491519977881637 4.181721537609747 1.036510291668403  2.388238778298599 4.235890293655541 1.139271241282413  2.376984689561735 4.217213481806972 0.9140205962625457  2.499504065393991 4.252765124719367 0.9946312788771979  2.395686590497218 4.308345635075262 1.103198605352946  3.653915386725586 4.231801916485614 2.372946868226776  3.549939795871898 4.327919980192213 2.166290264104556  3.677543951581779 4.283501033055547 2.200502925996338  3.531559329843568 4.255844684595282 2.154643827497839  3.092470891929891 3.921416429222536 1.585830086590383  3.082542910746165 3.879604579349708 1.435593730477143  3.090470552318378 3.956264304882251 1.402676053452444  3.100041380191451 4.000462966461861 1.565535497835198  3.098411825943014 4.032821839190577 1.369820639769062  3.107616908355263 4.079404082070946 1.545271841455199  3.106355163735554 4.10931047200398 1.33698175541838  3.115184973812625 4.158266309946673 1.525025272369176  3.11427958210338 4.185742844702918 1.30414491742269  3.122731781608628 4.237064851095996 1.50478711479744  3.122172426170517 4.262121646579479 1.271304573248436  3.130247723831832 4.315799435946941 1.484554378795844  3.129989131529634 4.338429653487758 1.23842413135667  3.137682460343204 4.394450878657817 1.464288770327177  2.479026530147378 4.004140519563579 2.360655055358905  2.474209205106387 3.989116910784032 2.518497675677448  2.599596721167602 3.982085677946185 2.420502409723984  2.608425856893569 4.050772035535102 2.428066657576303  2.483586044213898 4.056582653611043 2.527767777150448  2.487846639952106 4.072977689610798 2.366275121682658  2.617195064539969 4.119354484928551 2.435681411829941  2.492880159577567 4.123937983198792 2.537081735565025  2.496587725657866 4.141736225487158 2.371950660934822  2.625915694398504 4.187834528522152 2.443313455367598  2.502122501431157 4.191176315430861 2.546407622215531  2.505272352914959 4.210399794152516 2.377645323737837  2.634600951175105 4.25622138249325 2.450935167974691  2.511332550980254 4.258305427737445 2.555720167622411  2.513924462247128 4.278968813308092 2.383330064513384  2.643267716729138 4.324521844821421 2.458522114908496  2.520531754969742 4.325332359198433 2.564999671320288  2.522570776573911 4.34744718829856 2.388978009652117  2.65192770256256 4.3927464733226 2.466043800284172  2.529758024457526 4.39226532252666 2.574219461337246  2.531246683386859 4.415835104767713 2.394555765932863  3.207958267387788 3.930489510507605 1.676291477571344  3.234490431236319 3.895185419929818 1.52693704219477  3.245106761635908 3.973444561686672 1.501087841191332  3.217876050032126 4.009593441300937 1.66104177524973  3.255681007865786 4.051589106732084 1.475264213358139  3.22773726378738 4.088602764730705 1.645805517392539  3.266224566645272 4.129647987768003 1.449445677332711  3.237552243845318 4.167526875225911 1.630572690463463  3.276743445883217 4.207645560346077 1.423628806974789  3.247336967131659 4.246391257613315 1.615340256228778  3.287243703677127 4.285588761662095 1.397816639299647  3.257107388638673 4.325197100868761 1.600115629380667  3.297718769788592 4.363477088365837 1.371985978582611  3.266840395799467 4.403938592179665 1.584874586903703  2.251553744850396 4.042017486380335 2.013153874279778  2.284956404306805 4.038566050896942 2.138752941815341  2.375692651984524 4.02457400894105 2.015451782083523  2.384410022780154 4.096419967425221 2.014185501301291  2.294449406362914 4.108651547649915 2.13960364611229  2.260992642092908 4.113312253737861 2.011512657562841  2.393008780497234 4.168224603895079 2.01297
[...]
<PointData  Vectors="f_16"> 
<DataArray  type="Float64"  Name="f_16"  NumberOfComponents="3" format="ascii">3.5570400840334720e-02 1.0236890683426926e-01 4.8061246132962684e-02  3.3743108189649346e-02 1.0453212855394162e-01 4.9069150107431195e-02  3.4060260794961432e-02 9.6540660346042598e-02 4.5482938298900967e-02  3.2672173085595398e-02 9.7590424627329933e-02 4.1050119428719285e-02  3.2435761873744973e-02 1.0622369974372438e-01 4.5637388451806371e-02  3.4134024185104313e-02 1.0363964303857448e-01 4.4820420515672518e-02  3.2760017295545951e-02 1.0443138262820438e-01 4.1612001125169377e-02  3.1116418778140743e-02 1.0732111321486143e-01 4.2243707474790719e-02  3.1349171838986459e-02 9.8243053319137325e-02 3.6755111077001787e-02  3.1351999186929581e-02 1.0487795211246675e-01 3.8327507240166959e-02  2.9705771680597248e-02 1.0805240313871774e-01 3.8751342267228976e-02  2.9995827526651562e-02 9.8591121869077855e-02 3.2459389615633195e-02  2.9859478086792113e-02 1.0507767194526535e-01 3.4897113362581528e-02  2.8167251330287576e-02 1.0855085585915149e-01 3.5070728587766317e-02  2.8576263557470089e-02 9.8718903491179025e-02 2.8052788678475916e-02  2.7065767785335100e-02 9.8679043761192700e-02 2.3454827629782241e-02  2.6495567361214615e-02 1.0889770254377049e-01 3.1140988236146902e-02  2.8259290643171512e-02 1.0509402626105743e-01 3.1295862689863223e-02  2.5458351167440607e-02 9.8522531968028904e-02 1.8605107665056558e-02  2.4673965615293579e-02 1.0911482060649920e-01 2.6881630746383747e-02  2.6518592413145334e-02 1.0491187332552870e-01 2.7498591610923467e-02  3.3687761482774629e-02 7.2932840048521054e-03 2.4858356834416565e-02  3.2018274928483859e-02 1.5364234644661431e-02 2.6747643957210122e-02  3.2407448549738663e-02 2.3249301224423004e-03 2.3809323399809762e-02  3.2053311382753642e-02 -2.1844462670285291e-03 2.1025906464232580e-02  3.1513507778084843e-02 1.1253067870569771e-02 2.2043728447242217e-02  3.3324710125758043e-02 2.9770041138448573e-03 2.1260070497097928e-02  3.2978620587114670e-02 -3.4372937894737974e-04 1.7657055752177121e-02  3.1006996823882953e-02 8.1330866895014189e-03 1.7483888888360787e-02  3.1734053416476164e-02 -5.5663414086246209e-03 1.8044256617031802e-02  3.2662088677118881e-02 -2.9092907394571406e-03 1.3861116601649973e-02  3.0531470992669917e-02 5.6716451285011042e-03 1.2808969860220983e-02  3.1466796992006850e-02 -8.1634588044337524e-03 1.4800285853677920e-02  3.2365759638506110e-02 -4.9147054886509826e-03 9.7464098602748975e-03  3.0087454575028403e-02 3.7011876051167821e-03 7.8796130318129643e-03  3.1245089515200823e-02 -1.0162750592708329e-02 1.1190701127395552e-02  3.2073790013965937e-02 -6.5098697131559741e-03 5.2194124654624963e-03  2.9659103599820203e-02 2.0859292855682035e-03 2.5803014561809412e-03  3.1052278301383029e-02 -1.1725107807052621e-02 7.1326124546337967e-03  3.1764052553516567e-02 -7.7945250438103174e-03 2.0346146884826056e-04  2.9224528078610115e-02 7.2008825165676554e-04 -3.1544105611104856e-03  3.0863267301734013e-02 -1.2997388872549469e-02 2.5694461904245160e-03  3.8739287139946552e-02 2.4203922432394262e-02 2.7347139900458423e-02  3.8924163757671805e-02 3.7456087564713809e-02 3.0046909755353624e-02  3.7385808040747759e-02 3.4028400286943004e-02 2.9853222698456014e-02  3.7010102603895166e-02 3.1433695250022702e-02 2.4016368684747654e-02  3.8630045306347720e-02 3.5088492924119197e-02 2.4263305613985715e-02  3.8483234736881387e-02 2.0989559858795657e-02 2.2161552917986622e-02  3.6605150961973788e-02 2.9306815514721252e-02 1.8595839365414219e-02  3.8294259401142686e-02 3.3076653353177658e-02 1.8883948737840484e-02  3.8186497000124518e-02 1.8401370894788653e-02 1.7272995275131833e-02  3.6185547936150204e-02 2.7528798430527579e-02 1.3280711651180825e-02  3.7936770679140544e-02 3.1351114888189854e-02 1.3631793272983994e-02  3.7879845351925838e-02 1.6267033015251064e-02 1.2420025026377865e-02  3.5768819595842230e-02 2.6014112689428898e-02 7.8466321451333403e-03  3.7584157294435178e-02 2.9839901671502127e-02 8.2882309024892836e-03  3.7588068231113568e-02 1.4476039095989874e-02 7.4031600737637518e-03  3.5373616525048925e-02 2.4706175063784121e-02 2.1109278054048976e-03  3.7266382870293234e-02 2.8492338434161237e-02 2.6720873110788650e-03  3.7335520216306935e-02 1.2953171977575470e-02 2.0613111494907650e-03  3.5016664476570224e-02 2.3576482358337016e-02 -4.0839760588771831e-03  3.7012573064415896e-02 2.7280618285566188e-02 -3.3751836770549320e-03  3.7147277723435033e-02 1.1640158331146585e-02 -3.7299221229095967e-03  3.3344460203481030e-02 2.0574716720746448e-02 2.7464090429300023e-02  3.2835988975764938e-02 1.6857182114496740e-02 2.2284806839217436e-02  3.2359558027045411e-02 1.3940985608627056e-02 1.7276205179827180e-02  3.1885686784301870e-02 1.1624725959851241e-02 1.2251596013370161e-02  3.1424274434141267e-02 9.7438837742250036e-03 7.0140236151258958e-03  3.0964858766021404e-02 8.1905613588279871e-03 1.4252468531874617e-03  3.0480494135543691e-02 6.8701598605286412e-03 -4.5959490793841132e-03  3.4006918223089128e-02 5.8976096904020316e-02 3.5276987807275825e-02  3.2235677430221578e-02 4.9496551761447419e-02 3.3467436800416764e-02  3.3419365235151419e-02 4.4153502864911591e-02 3.2304861938531756e-02  3.2743470905879132e-02 4.2036007625803049e-02 2.5772452342866948e-02  3.1385684047877914e-02 4.7774238452630388e-02 2.6685319691211986e-02  3.3202252025137137e-02 5.7781302190024975e-02 2.8799546043277138e-02  3.2378257895872835e-02 5.6705110926001924e-02 2.2758866702118935e-02  3.0548967109600204e-02 4.6345739594044762e-02 2.0393704144582692e-02  3.2049321812527912e-02 4.0318617297974056e-02 1.9685431265971432e-02  2.9708718705896888e-02 4.5135285173048816e-02 1.4267065314687362e-02  3.1545293847493730e-02 5.5696646287392314e-02 1.6874041869636574e-02  3.1346897983279311e-02 3.8872215295786446e-02 1.3754573201350522e-02  3.0710172488803485e-02 5.4755316427770137e-02 1.0939295199272855e-02  2.8872078561689309e-02 4.4102161492834004e-02 8.0672549391151132e-03  3.0647740728011501e-02 3.7636048493936432e-02 7.7346626531157019e-03  2.9875689633159515e-02 5.3859447417096626e-02 4.7667227097766569e-03  2.8037300647276959e-02 4.3194988950886415e-02 1.6006597435277450e-03  2.9951140932552630e-02 3.6559097507462307e-02 1.4329654241528142e-03  2.9040013530692806e-02 5.2990253344403750e-02 -1.8004168353971182e-03  2.7212917906467359e-02 4.2366879107003180e-02 -5.2901876865556613e-03  2.9255701030887229e-02 3.5610611319092787e-02 -5.3099139444263742e-03  4.0598143814383481e-02 1.5085527463796180e-02 2.5040615674640124e-02  4.0490910415191740e-02 2.8611519530078781e-02 2.7577617306798103e-02  4.0292230686611072e-02 2.5709196862378287e-02 2.2301852725484590e-02  4.0419830834151987e-02 1.1425202674990767e-02 2.0691112698694631e-02  4.0043271449013144e-02 2.3294691205670969e-02 1.7327444211355649e-02  4.0206126954726217e-02 8.4805927166766767e-03 1.6526538244876449e-02  3.9778740911848999e-02 2.1252799867449986e-02 1.2426788279193378e-02  3.9991662411716984e-02 6.0847340534016534e-03 1.2338057992488006e-02  3.9529345585457135e-02 1.9492879737688682e-02 7.4040644230558197e-03  3.9806120501402219e-02 4.1093591753171687e-03 7.9532844630238117e-03  3.9325733146073447e-02 1.7946725890181557e-02 2.0991323794623423e-03  3.9674218039715027e-02 2.4608969309994448e-03 3.2251043615633603e-03  3.9206339514761497e-02 1.6566069727955803e-02 -3.6228266351353926e-03  3.9624315910770931e-02 1.0714653240070883e-03 -1.9720198508156352e-03  3.9214089674305133e-02 -1.7150946855397392e-02 1.4714397706201835e-02  4.0026301924637291e-02 -1.1453580825596440e-02 1.3883791592454975e-02  4.1544946896741840e-02 -2.1055777602506279e-02 1.4487932823418754e-02  4.0162624314512688e-02 -9.0422807029580388e-03 1.6433461563960167e-02  3.9310620570521281e-02 -1.4974447403927147e-02 1.6460661939650855e-02  4.1583471230692261e-02 -2.2213996389825543e-02 1.3034700517948269e-02  3.9170179468923767e-02 -1.8667899326067924e-02 1.2548623299580871e-02  3.9941987775017951e-02 -1.3268452720695276e-02 1.0993658421725757e-02  4.1668043185184384e-02 -2.2789582049803019e-02 1.1053242945173045e-02  3.9172288884838188e-02 -1.9645873588164636e-02 9.8725896147933857e-03  3.9926916027634915e-02 -1.4609731469284716e-02 7.6535879877993604e-03  4.1854183730644874e-02 -2.2924621173980513e-02 8.4202134544910552e-03  3.9254913883551908e-02 -2.0208454548057957e-02 6.5913568666485850e-03  3.9982793502004850e-02 -1.5526123552006220e-02 3.7401324459113419e-03  1.9750840420654427e-02 1.0558559816340644e-01 1.4216093101816063e-02  1.9794710410811024e-02 8.4083135006033746e-02 2.3527553549333702e-03  1.8608496389596382e-02 9.0805436610878337e-02 4.6100250163081244e-03  2.1261997891785393e-02 8.3662009134570198e-02 9.4249932910565222e-03  3.0438271720330212e-02 2.4609405756147330e-02 2.8967496612591969e-02  3.0592658411468465e-02 9.8112188889787587e-03 2.5792598163571823e-02  3.0028137115906357e-02 5.3327163351310795e-03 2.1842173648901935e-02  2.9714262606371476e-02 2.0903889511486844e-02 2.3221539433233986e-02  2.9530215952217147e-02 1.9790671238102357e-03 1.7852271279708901e-02  2.9012940833705165e-02 1.8048001760931947e-02 1.7818664878666002e-02  2.9093087286123444e-02 -6.3233792950276356e-04 1.3669356058445138e-02  2.8358538228166627e-02 1.5797785326939026e-02 1.2409388768554276e-02  2.8712417477875299e-02 -2.7110128463936163e-03 9.1700487769784365e-03  2.7742846565727310e-02 1.3973056425731639e-02 6.8000489887677460e-03  2.8381142918458311e-02 -4.4108914453355897e-03 4.2552852374829267e-03  2.7156338185125150e-02 1.2452667464101917e-02 8.6018451375019229e-04  2.8080342348205386e-02 -5.8794879873460722e-03 -1.1117073573419173e-03  2.6589194514681596e-02 1.1178133260543609e-02 -5.5054859419497587e-03  4.0127562312303397e-02 8.4610007576600324e-02 3.9548509440312435e-02  4.0999685875491687e-02 9.1715356822480221e-02 4.1633507953649576e-02  3.9344497116174978e-02 8.9123395946479694e-02 4.1457882564729105e-02  3.8461873599317659e-02 8.9360489173251609e-02 3.7963047733514318e-02  4.0201825718031582e-02 9.1966612407465717e-02 3.9008918902330485e-02  3.9473290652773399e-02 8.4698307474404266e-02 3.5779867361940616e-02  3.7541542891729673e-02 8.9322617469270046e-02 3.4501100330746465e-02  3.9343661452739875e-02 9.1931776393156570e-02 3.6353092517406864e-02  3.8747272770569351e-02 8.4534244602006120e-02 3.2094768502676979e-02  3.6589379122018297e-02 8.9057860157955249e-02 3.1032221130037670e-02  3.8443669136046688e-02 9.1654040402259551e-02 3.3652795557227638e-02  3.7976767465947393e-02 8.4157053743960139e-02 2.8430634030862691e-02  3.5612925382996624e-02 8.8594820883922287e-02 2.7517153065885022e-02  3.7516000827101464e-02 9.1160983017514297e-02 3.0904066254759395e-02  3.7181076148549347e-02 8.3590713600568911e-02 2.4733341666875651e-02  3.4619125511185969e-02 8.7944004606612461e-02 2.3928419298860693e-02  3.6570699740653342e-02 9.0467807817269680e-02 2.8109721333849980e-02  3.6375903323726484e-02 8.2837680275430065e-02 2.0959567982982517e-02  3.3615678670881874e-02 8.7080374136356262e-02 2.0255085946026877e-02  3.5611797269824837e-02 8.9590424757218845e-02 2.5302960960112454e-02  3.5576669150446182e-02 8.1880590059537170e-02 1.7066410069096316e-02  2.9164873824438119e-02 3.4635921424742110e-02 3.0883351736558179e-02  2.8741218257726228e-02 1.9668045126774773e-02 2.8164889545174224e-02  2.7911249992508234e-02 1.5519264430837352e-02 2.2998504957886995e-02  2.8232781358701511e-02 3.1481831821883501e-02 2.4371683138656938e-02  2.7158805586474329e-02 1.2370979878907302e-02 1.7955459648585550e-02  2.7335401921751438e-02 2.8972912724725249e-02 1.8250781881281691e-02  2.6501424811591606e-02 9.8871195975297095e-03 1.2811288967382650e-02  2.6491917505351362e-02 2.6960998325150660e-02 1.2209718431808061e-02  2.5916627504472690e-02 7.8666689131708500e-03 7.4173632352978027e-03  2.5696804016652336e-02 2.5306732106253994e-02 6.0279939744020666e-03  2.5394800840381770e-02 6.1774783986218978e-03 1.6553291194498748e-03  2.4942467737341694e-02 2.3908853444486733e-02 -4.5410839800576848e-04  2.4943432986795088e-02 4.7134299347911879e-03 -4.5533367117532664e-03  2.4213542736533457e-02 2.2693264810594197e-02 -7.3539472996687521e-03  4.1128507682918980e-02 5.9251512356048447e-02 3.2993238560632646e-02  4.1150903118322445e-02 6.9060080003722532e-02 3.5063763311409930e-02  3.9726940071871726e-02 5.9987492575118227e-02 3.4151496381469124e-02  3.9370146928616880e-02 5.9057862835568117e-02 2.8593570199392185e-02  4.0834613292943391e-02 6.8585799507787495e-02 3.0135676048979220e-02  4.0876828532645078e-02 5.8317552230013031e-02 2.7575517615571400e-02  3.8957424230853840e-02 5.8126270953379779e-02 2.3406112415034135e-02  4.0426657526054337e-02 6.7959406421465460e-02 2.5480003962653978e-02  4.0542468188672014e-02 5.7366261397114739e-02 2.2515571245149385e-02  3.8498855618341758e-02 5.7192681149336427e-02 1.8370768793384940e-02  3.9969541606054565e-02 6.7221538428439989e-02 2.0936894400985902e-02  4.0168210317890286e-02 5.6402161687374608e-02 1.7600851071708824e-02  3.8028297407980395e-02 5.6245379650202688e-02 1.3301989057687248e-02  3.9492771351772517e-02 6.6379473400121486e-02 1.6365819615853417e-02  3.9782532980114423e-02 5.5413375055063073e-02 1.2648778127455705e-02  3.7575509950321384e-02 5.5264611606600518e-02 8.0253286436342153e-03  3.9020870055144118e-02 6.5420093441497240e-02 1.1634186820346675e-02  3.9416661649477477e-02 5.4378985579835379e-02 7.4942831139339127e-03  3.7176663207562043e-02 5.4221721489828678e-02 2.3603552847543514e-03  3.8575081737378301e-02 6.4315844380697582e-02 6.6047455381170791e-03  3.9099167080526818e-02 5.3265723656199145e-02 1.9780459825613460e-03  2.8140454565556063e-02 -3.2671410604646783e-03 1.9318786968809537e-02  2.7745689708073798e-02 -5.9982759005989018e-03 1.5821013890601480e-02  2.7443167573090347e-02 -8.1280030845673375e-03 1.1943750150005204e-02  2.7227595335826665e-02 -9.8324373143145963e-03 7.6162242821264606e-03  2.7088280785648348e-02 -1.1257798846803078e-02 2.7668071203456979e-03  3.6647208666781707e-02 -8.2209419952503898e-03 1.9624904801575048e-02  3.4473099770353580e-02 -3.6618512001930291e-03 2.1734174209842350e-02  3.5372038599430562e-02 -1.2604154110925336e-02 1.8086569660968645e-02  3.5252527887369510e-02 -1.6461686151755181e-02 1.7936887082942686e-02  3.4225287602706787e-02 -8.0235523045268167e-03 1.9883751915413334e-02  3.6517216841413486e-02 -1.2392311312220412e-02 1.8553714379107439e-02  3.5181898655089347e-02 -1.9200588477898121e-02 1.7399097103185154e-02  3.4030446931175837e-02 -1.1257303255682489e-02 1.7785576809818487e-02  3.6409806411400569e-02 -1.5453691231106367e-02 1.7229960496856885e-02  3.5162890854335063e-02 -2.1014166177851252e-02 1.6394278399421581e-02  3.3880299202652446e-02 -1.3651978133637879e-02 1.5362617757541931e-02  3.3760985014556849e-02 1.1789643869935268e-01 5.7094730424385447e-02  3.1988058855078889e-02 1.1515542747788379e-01 5.5366303097195819e-02  3.3164205339555705e-02 1.1122389123926309e-01 5.2800281822647996e-02  3.1856028585866510e-02 1.1327085345630257e-01 5.0565373390891809e-02  4.0931657436622304e-02 8.1914651182455986e-02 3.8324786178247805e-02  4.1609396669173154e-02 8.8151176318596411e-02 3.9952092543499663e-02  4.1013484579079502e-02 8.8328792632330441e-02 3.6965608125713097e-02  4.0420281139288389e-02 8.1879545419522512e-02 3.4427480707211612e-02  4.0332709160779363e-02 8.8217270654023697e-02 3.3992222680863785e-02  3.9824946333181156e-02 8.1598700254899056e-02 3.0631811901667957e-02  3.9602099100630908e-02 8.7866511013292889e-02 3.1002912797038380e-02  3.9178424198352879e-02 8.1112075228926231e-02 2.6868459594098022e-02  3.8843351477058627e-02 8.7305017507603791e-02 2.7976272464322029e-02  3.8505062677600038e-02 8.0442262772612114e-02 2.3071004878488267e-02  3.8074489118564744e-02 8.6546424474174183e-02 2.4900304641902668e-02  3.7825466481727854e-02 7.9590634655170481e-02 1.9184294585470954e-02  3.7312498606296041e-02 8.5585682134532784e-02 2.1774094486261802e-02  3.7156974978182232e-02 7.8544811871758088e-02 1.5176708180196495e-02  3.8881327250150102e-02 -1.3207946012227282e-02 1.6792983910126656e-02  3.7674882969603571e-02 -1.8612670575625342e-03 2.1588847047004540e-02  3.7460555943885206e-02 -6.1228463971243477e-03 1.9455352095975265e-02  3.8778109372416616e-02 -1.7055240079879890e-02 1.6706972718783950e-02  3.7284080521002398e-02 -9.4144390910835644e-03 1.7165841583839159e-02  3.6184947297021666e-02 9.6524785766506083e-02 4.5177980325659832e-02  3.4844093930516490e-02 9.7352096858829937e-02 4.1427144051229117e-02  3.3535417070250054e-02 9.7840091574337276e-02 3.7736226928369782e-02  3.2216797495232027e-02 9.8038340629242923e-02 3.4027665757483977e-02  3.0849788754002870e-02 9.8004819494825049e-02 3.0226604234032808e-02  2.9412810243639440e-02 9.7776337873297134e-02 2.6282909673770827e-02  2.7898232721422434e-02 9.7395641192597290e-02 2.2138206424323566e-02  3.4863309911353529e-02 1.2624794845294014e-02 2.5873779015952905e-02  3.4505302704916654e-02 8.5403971932861387e-03 2.1588592895200757e-02  3.4166483758141013e-02 5.3751463474761346e-03 1.7396505674649482e-02  3.3825864924798513e-02 2.8888913377798182e-03 1.3102234241465262e-02  3.3493971277363976e-02 9.0504103160372830e-04 8.5472230945370774e-03  3.3159730596358052e-02 -6.9816090537797493e-04 3.6058725201856510e-03  3.2797291157834418e-02 -2.0088403279838979e-03 -1.8201928505248300e-03  3.5035435104085036e-02 1.1477593636232906e-01 5.5376549359875758e-02  3.3642183022995896e-02 1.1646799888105576e-01 5.4712185353360490e-02  3.5157907732592204e-02 4.7888638766877295e-02 3.3111728552747029e-02  3.4576212345953650e-02 4.6121275909530100e-02 2.6723212903800711e-02  3.3964171111107132e-02 4.4608781277135565e-02 2.0810497399157645e-02  3.3341104433347597e-02 4.3298726596675323e-02 1.5059547163383027e-02  3.2715942732067939e-02 4.2143620822254334e-02 9.2364537869030830e-03  3.2096078714584468e-02 4.1108451731556632e-02 3.1442679628972989e-03  3.1474812800382446e-02 4.0158006625337764e-02 -3.3877100284461174e-03  4.2050394709495703e-02 -1.6269403035651071e-02 1.3768133862035572e-02  4.2017380485789693e-02 -1.7783431584582426e-02 1.1504798193336668e-02  4.2085866171197701e-02 -1.8800957740213370e-02 8.7787318566351271e-03  4.2252153229570023e-02 -1.9411503314637278e-02 5.4580819906821596e-03  4.2561167554738391e-02 6.5469662420797062e-02 3.3418205023444635e-02  4.2349044925016184e-02 6.4852523346971294e-02 2.8394243560728054e-02  4.2055529870871362e-02 6.4106208119685135e-02 2.3685800974224812e-02  4.1713762776904487e-02 6.3267490912503124e-02 1.9102896290096340e-02  4.1355560376002957e-02 6.2337924066208077e-02 1.4493110419121644e-02  4.1006459988201474e-02 6.1304462289775048e-02 9.7175504282411649e-03  4.0684765950112355e-02 6.0135420096815273e-02 4.6394508840328077e-03  4.0978923836037531e-02 -6.0821399576909425e-03 1.3005164658529921e-02  4.0876932146304501e-02 -8.0104518900207620e-03 9.5755721559036278e-03  4.0844640809238726e-02 -9.5155882959710933e-03 5.7412736274056238e-03  4.0904724089138873e-02 -1.0676441979212737e-02 1.3799728193273121e-03  2.9263926104924176e-02 9.1569853172913634e-02 4.4779293694224329e-02  2.8015099005969425e-02 9.6825964515509247e-02 4.7728179866384973e-02  2.7978102434598355e-02 8.0827584430963315e-02 4.2099850844582627e-02  2.8049412446480574e-02 9.3023377521459852e-02 3.8873982597199319e-02  2.6897529006371858e-02 9.8911629395852518e-02 4.2313785181443422e-02  2.6717653305322116e-02 8.1654634869936543e-02 3.5219691130576811e-02  2.6760997494369915e-02 9.4044440625619924e-02 3.3281174559246479e-02  2.5705936043018320e-02 1.0054150630618107e-01 3.7039097437397063e-02  2.5421247959522855e-02 8.2269206199336337e-02 2.8795666351492954e-02  2.5384002567914708e-02 9.4835636112091198e-02 2.7717519400818815e-02  2.0762422905082234e-02 9.6635191750099853e-02 9.7185529562956192e-03  4.2382465957363349e-02 8.4674058583831563e-02 3.8239527156487992e-02  4.1951074307406529e-02 8.4762681806163975e-02 3.4925793780545680e-02  4.141