<?xml version="1.0"?>
<VTKFile type="UnstructuredGrid"  version="0.1"  >
<UnstructuredGrid>
<Piece  NumberOfPoints="973" NumberOfCells="4091">
<Points>
<DataArray  type="Float64"  NumberOfComponents="3"  format="ascii">1.168031883077998 1.565794378947948 1.461504770759602  1.272581444076399 1.521625932910584 1.510496282104881  1.171617514535125 1.479624859145885 1.566984213007006  1.169123676584748 1.427272208622997 1.528277108932676  1.270797890057483 1.471828506583195 1.469692668167073  1.167170168863462 1.51462419374292 1.420781043438865  1.167082524639161 1.374673229576896 1.489538612446404  1.269428980460013 1.421745095141326 1.428844520986864  1.166694438322433 1.463191654151283 1.379931760414859  1.165180031193294 1.321868035618547 1.450799520895255  1.268216226891822 1.371436498252238 1.387952730591155  1.166349611642288 1.411502715295474 1.338992567987036  1.163173653602846 1.268901793936658 1.412060503635295  1.266952965935529 1.320958864101668 1.34702506124377  1.165921021159405 1.359570898338491 1.298005891591861  1.160833961865265 1.215840791546152 1.373286860359055  1.265442445970548 1.270372693162983 1.306025657999242  1.165232185644893 1.307401691869827 1.25695850810402  1.157882278371628 1.162736749529886 1.334389198793342  1.263434995290146 1.219735329014493 1.264853851041764  1.164110897417296 1.254972299054182 1.215751152135518  0.90886118326683 1.568194029775064 1.451838172839612  1.028418194306059 1.591826850599213 1.42525398245944  1.029571910832461 1.502513684375585 1.545810206785947  1.028770787919751 1.447934888157908 1.507613463108309  1.030684118322486 1.537688143127911 1.38510164501021  0.9108675150194077 1.5120793861319 1.411568532426912  1.028440820141858 1.393100141312324 1.469305668055986  1.033361708466014 1.483290300428163 1.344756714921517  0.9132588531166863 1.455695968482952 1.371088384614982  1.028195795252194 1.338019048012366 1.430970071922264  1.03611068015011 1.428600958491477 1.304302728430658  0.9156843409289125 1.39899110231402 1.330518724455424  1.02778679140666 1.282706193091746 1.392637236196107  1.038740440778415 1.373619074131222 1.263795422432382  0.9179588272903071 1.341958562062866 1.289911967044037  1.027001780010056 1.227179677270221 1.354297325026629  1.041109491682449 1.318332134552477 1.223252802521433  0.9199423984513926 1.284564433060815 1.249284657804295  1.025653473038957 1.171448065902729 1.315900497246646  1.043119132064437 1.262668472720355 1.182691894452265  0.9215308745458362 1.226731924955578 1.208607150049943  1.61909314852576 1.435515961839519 1.555706773152887  1.658817275468362 1.527962793865104 1.469736227497901  1.757723213686891 1.428720073759284 1.530187274580987  1.746550144566283 1.387792208415137 1.479541508619159  1.653837620587346 1.487934359018609 1.419348649526156  1.610309434283778 1.39112834095568 1.508895767031083  1.73540958826739 1.346628006807065 1.429073906846858  1.649094995397051 1.447672878737614 1.369043424639414  1.60166903747482 1.346459834049687 1.462254971353468  1.724337477799191 1.305359373994737 1.378680071166599  1.644475468624703 1.407272805945968 1.318743207522587  1.593142719739779 1.301645929490841 1.415668105951223  1.713310556867832 1.264098431675236 1.328293848853412  1.162608287760912 1.664055138173127 1.338509909433131  1.293560309399381 1.591476590608855 1.424148674554688  1.293945817379612 1.542888961045387 1.381225512279102  1.165933759925364 1.613951765150827 1.29454913035168  1.294725606207837 1.494072837740243 1.338226735550218  1.169624578504436 1.56371432971523 1.250350283931954  1.295654783451753 1.445053455398269 1.295162421260308  1.173415737948194 1.513231038756235 1.206024823355139  1.296525868479381 1.395845674193447 1.252046154838067  1.177125741962954 1.462480496440024 1.161634128043996  1.297168665331297 1.346479500952777 1.208862448947158  1.180636387505957 1.411434100549847 1.117205248062915  1.297376147816357 1.296978486146341 1.165553287966082  1.183887383355013 1.360047578208046 1.072759720683142  1.537235754372968 1.513682895250969 1.491809817349388  1.532369009020873 1.469600775681609 1.445261825972738  1.527776705542276 1.425265519429831 1.398820951423184  1.523329490822096 1.380784074900491 1.352388739345749  1.543362594876404 1.571403923000437 1.361692297761476  0.9101126112069072 1.727534614377724 1.252893593097417  1.028777099371395 1.659542150591836 1.331706767035231  0.9134127280867991 1.643051533591803 1.347515190781951  0.9153295865423352 1.588064586759601 1.303805229715064  0.9015076258280418 1.497575657497388 1.554606768103657  0.9020982335287164 1.439702970466835 1.518133692012502  0.9031655981824587 1.38155024982139 1.481545575649707  0.9042498450019099 1.32312066780249 1.44491981217277  0.9051211429026134 1.264424895439558 1.408286144538788  0.9055851287512877 1.205451226902444 1.371647530774134  0.9054289587320701 1.146149912356309 1.33499031919626  0.924044040878388 1.432128595369544 1.664186914570495  0.9223691268400848 1.374223495610336 1.629942438904301  0.9213218703484809 1.316077219994551 1.59560547689723  0.9203512317810431 1.257687348638479 1.561259236264491  0.919145708729486 1.199100053630129 1.5269334752622  0.9174196079821428 1.140349876233861 1.492615184902386  0.9148237566106255 1.081405706113339 1.458284421920046  1.031821266009403 1.607119314768782 1.287461451795425  1.035181294137744 1.554458097091209 1.242927770871042  1.296094566915521 1.458548843669839 1.585354143975234  1.291332210389893 1.408601948471194 1.545131851894811  1.286968472301761 1.358392962788149 1.504972543988854  1.282785334477385 1.307993456401885 1.464830247866531  1.278569425724543 1.257480053804823 1.42468612633423  1.274119241337772 1.206960687584886 1.384499096721351  1.269172058476056 1.156596322376186 1.344179914168273  1.867868471617981 1.207600735843766 1.415789635441239  1.865957499392706 1.091954278916707 1.496912870522194  1.985372743852028 1.089098726779175 1.454421222261983  1.884472319392856 1.135907135649005 1.547374144588632  1.967151470534646 1.046937429600342 1.401592450060663  1.852584310298514 1.168168415112358 1.362921543609407  1.847505681555226 1.048050700554762 1.446448273854131  1.949048931640408 1.004910714075175 1.348672874949825  1.837390238302152 1.128866350186436 1.309959740787252  1.829185653116009 1.004286558114677 1.395892102182754  1.931133326859386 0.9631030920057485 1.295589302111726  1.822385023320044 1.089851588809597 1.256807016945994  1.81108239032338 0.9607788109065275 1.345154312354856  1.422763725597528 1.376170577293208 1.663042986422518  1.543272208720203 1.36704919991794 1.637620508399492  1.434931366854542 1.302970045969892 1.745381389455912  1.420986308410769 1.253154636438723 1.705124589501164  1.531675695023968 1.320198830781027 1.593397700071757  1.412939850458073 1.327129245427569 1.622119824228047  1.407200877256098 1.203202580968522 1.665114983027018  1.52022225307812 1.273140646552042 1.549405976798603  1.403317536712467 1.277853480902432 1.581389054861863  1.393585437019123 1.153153819414078 1.625232985265903  1.508903940834919 1.225964998158465 1.50552418691433  1.393861979328179 1.228427761171905 1.540732449106777  1.380049754468823 1.103084628642018 1.585420155845295  1.497652741030446 1.178777364726491 1.46168124561297  1.384453440576924 1.17895152400284 1.500105661619399  1.366473034978981 1.053150295081219 1.545588598148961  1.486399911630081 1.131730993983069 1.41781915020205  1.374981410856101 1.129563345666392 1.459469092704311  1.352833610414303 1.003627982041596 1.505608870916955  1.475103091254164 1.085087120569465 1.373808608736612  1.365307166677469 1.080525421741205 1.418732224257178  1.404163762548326 1.433320156677658 1.595396147511919  1.302907561157424 1.392769982787602 1.667949777930924  1.294640151739925 1.341841103810213 1.629276540950695  1.397176783607824 1.384859686431778 1.553581993548404  1.286739056133124 1.290695378764217 1.590730320524042  1.390501704017007 1.336150718917473 1.511924946262435  1.279040044664671 1.239386191221824 1.552232586721428  1.383998997386229 1.287282280815018 1.47030974835498  1.271336995399238 1.187999246267931 1.513763760477276  1.377503986747957 1.238339150665135 1.428690343300216  1.263427829208467 1.136685631438564 1.47528573808123  1.370851453297736 1.189459274737495 1.387022949888797  1.255070424456225 1.085658415632842 1.436720687075635  1.363853077890681 1.140885170126844 1.345240374431881  1.049857530634502 1.360734617874959 1.764349288693289  1.179456977925526 1.345289905166471 1.762518997882882  1.048261302384411 1.301049746987225 1.87201491119409  1.038947340557797 1.243846491428068 1.840502919251571  1.170376945332606 1.291754165014621 1.726684595456233  1.044620471119482 1.304405678280621 1.730718214465909  1.030368396439963 1.186529880147477 1.808903821053878  1.161803283591741 1.238065268357132 1.690906473097859  1.040034861571011 1.247891016188131 1.697034611863044  1.021961922465519 1.129069940335775 1.777354684039161  1.153445145081117 1.184233940805525 1.655187970110876  1.035592965489522 1.191189707074955 1.663408003521838  1.013382292292634 1.071542307194122 1.74589262430739  1.145038402852343 1.130333053052695 1.619550004802031  1.030993271455572 1.134389532009552 1.629857215302773  1.004334639669269 1.014081677591931 1.714506452364191  1.136311518790914 1.076518169155192 1.583954644435481  1.025947301569501 1.077627720887769 1.596347680954876  0.9943963980950782 0.9569788493338446 1.683130370703414  1.1269288146429 1.023048677916252 1.548296927430308  1.019971002359847 1.021078422409748 1.562787808744982  1.39940813320391 1.510022351161631 1.518170702404261  1.395214318467711 1.462895090835958 1.475388373539703  1.391332367926431 1.415466371952371 1.432659856995673  1.38763294245312 1.367817866944549 1.389894094415081  1.383937960866722 1.320030876160462 1.347081437730384  1.380074850153273 1.272192522906991 1.304180102583114  1.37582893613981 1.224436752166541 1.261092887080414  1.421008533992385 1.553967690813495 1.37314574483092  1.421769
[...]
<PointData  Vectors="f_16"> 
<DataArray  type="Float64"  Name="f_16"  NumberOfComponents="3" format="ascii">5.7780742687784666e-02 -6.0221007034579693e-02 -1.1287110580239550e-01  5.5295763934634444e-02 -5.8714074284617716e-02 -1.1059700791250739e-01  5.5517435989549939e-02 -5.5539679377171219e-02 -1.0805179283213510e-01  5.5226597022898949e-02 -5.7515383956838598e-02 -1.0520728828710069e-01  5.5155021893105158e-02 -6.0746220128206935e-02 -1.0826793382056567e-01  5.7485519910043997e-02 -6.1989879241917449e-02 -1.1085671964007715e-01  5.5011075813249329e-02 -5.9138780609210698e-02 -1.0232141253337533e-01  5.5048822519819393e-02 -6.2381765755814611e-02 -1.0582414163485554e-01  5.7297363038765439e-02 -6.3361842636002697e-02 -1.0871076279179935e-01  5.4838439665439699e-02 -6.0472943655803683e-02 -9.9344600975043953e-02  5.4984580518975222e-02 -6.3703564805782653e-02 -1.0324631692090146e-01  5.7162689268231079e-02 -6.4408701397858981e-02 -1.0641389011092027e-01  5.4673067489168330e-02 -6.1567000087881005e-02 -9.6210458784652647e-02  5.4928086875065688e-02 -6.4768590160916725e-02 -1.0048124941500104e-01  5.7021096225420648e-02 -6.5176308172418401e-02 -1.0394180469593595e-01  5.4478203337743301e-02 -6.2439299925693657e-02 -9.2854964131893480e-02  5.4849090128814525e-02 -6.5593426021761075e-02 -9.7467448952017907e-02  5.6805351720815189e-02 -6.5669370498718585e-02 -1.0126640936730691e-01  5.4192048710676281e-02 -6.3130740104035257e-02 -8.9259491066889227e-02  5.4691010545373168e-02 -6.6119766540584643e-02 -9.4135872374146654e-02  5.6447456228405357e-02 -6.5787451117142182e-02 -9.8301080270915442e-02  6.0610780921576478e-02 -5.8419457176485487e-02 -1.1293429719671036e-01  6.0035794178335149e-02 -6.0438522166275044e-02 -1.1392431370732524e-01  5.7730800926629640e-02 -5.5582370850445144e-02 -1.0943985954891536e-01  5.7313338390400641e-02 -5.7381850211256552e-02 -1.0664693612122327e-01  5.9626955113966464e-02 -6.1950043767726747e-02 -1.1203890281396955e-01  6.0185531281883434e-02 -5.9945667747225581e-02 -1.1071639155063373e-01  5.7005143389832098e-02 -5.8836991737511404e-02 -1.0381582528859917e-01  5.9338706594097811e-02 -6.3086903710905917e-02 -1.0999731444602706e-01  5.9896428257145258e-02 -6.1108219176287046e-02 -1.0839566590683378e-01  5.6751730870517242e-02 -6.0001815277503583e-02 -1.0090214821619559e-01  5.9111044882636320e-02 -6.3912021301509886e-02 -1.0778920382964167e-01  5.9668511054588744e-02 -6.1968751615370583e-02 -1.0595078510655061e-01  5.6495874416385254e-02 -6.0918222550515308e-02 -9.7858182713153538e-02  5.8871550397126854e-02 -6.4462371061240795e-02 -1.0541004924496826e-01  5.9426977619438562e-02 -6.2567600912174781e-02 -1.0337012123974225e-01  5.6174448934378098e-02 -6.1605170999107950e-02 -9.4643117085263587e-02  5.8537989630208988e-02 -6.4736171766950776e-02 -1.0286392723103491e-01  5.9088315506238706e-02 -6.2925056924983902e-02 -1.0065322750656588e-01  5.5712767366843864e-02 -6.2070493543937733e-02 -9.1224996648751083e-02  5.7991237433833498e-02 -6.4638461580293766e-02 -1.0017348961977153e-01  5.8559574252884536e-02 -6.3027053470176897e-02 -9.7784624272505394e-02  4.9076221373108755e-02 -5.6104078124106345e-02 -1.0409243002209548e-01  5.0368885360681820e-02 -6.0384679954795843e-02 -1.0947862650495015e-01  4.7629840140031195e-02 -5.6712837192784554e-02 -1.0266685993102365e-01  4.8415077878996071e-02 -5.9579748994263382e-02 -1.0046496668738406e-01  5.1011452403104861e-02 -6.2884187667625061e-02 -1.0786896555218456e-01  4.9632950054942747e-02 -5.8788650683440427e-02 -1.0160728237575331e-01  4.9089182887276823e-02 -6.2067821293788981e-02 -9.8115728037470623e-02  5.1558485728599328e-02 -6.4992268731075151e-02 -1.0608174579802271e-01  5.0049556493319540e-02 -6.1077484452885807e-02 -9.8981364317069442e-02  4.9750793849865936e-02 -6.4248303738004636e-02 -9.5614799317207413e-02  5.2106590858511687e-02 -6.6765441722018287e-02 -1.0408585621561235e-01  5.0444726769554603e-02 -6.3082300028042632e-02 -9.6216837480560508e-02  5.0462294011442532e-02 -6.6251991112924111e-02 -9.2908229667640618e-02  6.0349660412479751e-02 -6.3937691028580337e-02 -1.1641159914651290e-01  5.6847376518071972e-02 -6.2323180835388133e-02 -1.1403951378289642e-01  5.6740906153344296e-02 -6.4094125001786323e-02 -1.1240583629057947e-01  6.0073354920979226e-02 -6.5176027044871507e-02 -1.1540684817839650e-01  5.6696533453397854e-02 -6.5453912903931766e-02 -1.1057184827852699e-01  5.9933927812397474e-02 -6.6026670608128432e-02 -1.1414679858806512e-01  5.6696221225119546e-02 -6.6473250579490870e-02 -1.0853836767670146e-01  5.9854663120340303e-02 -6.6530349402531636e-02 -1.1265249375071913e-01  5.6693214926012835e-02 -6.7193940741730032e-02 -1.0627372514009444e-01  5.9761979904490357e-02 -6.6710047619302548e-02 -1.1094101666592995e-01  5.6618449681701391e-02 -6.7620002743016924e-02 -1.0374613714590043e-01  5.9566780728867633e-02 -6.6565922579763459e-02 -1.0903178182797819e-01  5.6363779717070829e-02 -6.7750696504932401e-02 -1.0098697351751977e-01  5.9106403618763050e-02 -6.6122382225740531e-02 -1.0694146828895337e-01  5.1655679642359932e-02 -5.9754892774595086e-02 -1.0949776300153699e-01  5.2067226488011036e-02 -6.2131871335249098e-02 -1.0754061699753610e-01  5.2386485476691495e-02 -6.4119817872965279e-02 -1.0537771365106637e-01  5.2703772016614546e-02 -6.5779790775901389e-02 -1.0304169667875136e-01  5.4006054688099742e-02 -6.5211083144327012e-02 -1.1302577916690178e-01  6.4187595866425737e-02 -6.3218346779695969e-02 -1.1730619431497298e-01  6.1764800084193001e-02 -6.3007597412098659e-02 -1.1616459119065196e-01  6.2418548738129923e-02 -6.1635219000770236e-02 -1.1566421437482687e-01  6.2048299253937456e-02 -6.2765529747448409e-02 -1.1429314655954602e-01  5.8878303876340472e-02 -5.4007342173408836e-02 -1.0917392725994153e-01  5.8402315593716565e-02 -5.5662395284134185e-02 -1.0612194239786879e-01  5.8039912120410229e-02 -5.6991990954912294e-02 -1.0304147220926906e-01  5.7732025411317389e-02 -5.8055491593111505e-02 -9.9885273134005914e-02  5.7414607908826548e-02 -5.8894204886238560e-02 -9.6611520145422722e-02  5.7015993970013792e-02 -5.9523505859966727e-02 -9.3191676562816975e-02  5.6452841595720643e-02 -5.9943059953791157e-02 -8.9647285147589142e-02  5.6916902569496386e-02 -4.8445580279909847e-02 -1.0448182038874246e-01  5.6418523163360088e-02 -5.0161981292635854e-02 -1.0076791814762950e-01  5.6018130629964615e-02 -5.1589815911062147e-02 -9.7118777229108513e-02  5.5666550324201064e-02 -5.2792649401456442e-02 -9.3463604180889878e-02  5.5318308594683431e-02 -5.3822397919740132e-02 -8.9727498891358046e-02  5.4925051820423801e-02 -5.4703822401121621e-02 -8.5841867679616185e-02  5.4432374070833775e-02 -5.5402687470418113e-02 -8.1745460517571714e-02  6.1418617043489422e-02 -6.4134698361345027e-02 -1.1505532614507799e-01  6.1218770520127079e-02 -6.4866956604669679e-02 -1.1371866812002709e-01  5.3416987115594644e-02 -5.5019055994851317e-02 -1.0663420426432928e-01  5.3323607636166018e-02 -5.7229519247313169e-02 -1.0376111250293171e-01  5.3244252617071303e-02 -5.9070977535447926e-02 -1.0085895572427299e-01  5.3198949855851781e-02 -6.0616251482277131e-02 -9.7876474098882019e-02  5.3170493516770841e-02 -6.1937837682921347e-02 -9.4732441160095798e-02  5.3146841564483537e-02 -6.3079083987854653e-02 -9.1343080889824679e-02  5.3120264135305129e-02 -6.4063788745301914e-02 -8.7613126013740730e-02  4.7537593181904071e-02 -6.1643238817238336e-02 -8.6055599687146725e-02  4.6046659278063160e-02 -5.6866727133986501e-02 -7.5465673321377574e-02  4.5741553970389724e-02 -5.8501416916538186e-02 -7.4410898041593704e-02  4.5320930702593333e-02 -5.4247556208372551e-02 -7.8627069786148945e-02  4.6648995616656801e-02 -6.1232905732327883e-02 -7.1367244924750328e-02  4.8403575891077903e-02 -6.4152861443375037e-02 -8.3315756911636396e-02  4.6824544543754835e-02 -5.9445610977907168e-02 -7.2252174314260773e-02  4.7691817638491847e-02 -6.4031610730929847e-02 -6.8190261118935711e-02  4.9441481471872079e-02 -6.6595550961917091e-02 -8.0383476711369348e-02  4.7680733111067262e-02 -6.2149743423844002e-02 -6.8874821185265070e-02  4.9087832842399128e-02 -6.6920703416544311e-02 -6.4900201918504985e-02  5.0859262338331872e-02 -6.9044871478635195e-02 -7.7244429336052370e-02  4.8864412312175670e-02 -6.4969038752444017e-02 -6.5388463017962195e-02  5.0035859808617314e-02 -5.0477964669575347e-02 -1.0026450626224620e-01  4.8644723203008604e-02 -5.1658636793793351e-02 -9.9331480926182658e-02  4.8459226864023520e-02 -4.5183897046718720e-02 -9.3795115103768256e-02  4.8591947370398507e-02 -4.7590546176230014e-02 -8.9928119480654919e-02  4.9020852404955066e-02 -5.4335886350879450e-02 -9.6190486953313947e-02  5.0154882745848547e-02 -5.2940306691837746e-02 -9.6892703733696475e-02  4.8716221082053854e-02 -4.9657644942139048e-02 -8.6243643882861293e-02  4.9282552637619409e-02 -5.6617385467678465e-02 -9.3031112647497777e-02  5.0238701203397747e-02 -5.5026124787056666e-02 -9.3565539437441975e-02  4.8830680970681120e-02 -5.1518015205411091e-02 -8.2613283304421511e-02  4.9556561991962532e-02 -5.8647660359685508e-02 -8.9837934626271487e-02  5.0333112728782367e-02 -5.6855913228664352e-02 -9.0215688591847989e-02  4.8954844959722771e-02 -5.3288026140808784e-02 -7.8898100240660810e-02  4.9868163523537443e-02 -6.0535009183715502e-02 -8.6500471809566451e-02  5.0449475974974720e-02 -5.8536009081927895e-02 -8.6734932134130124e-02  4.9124404048301124e-02 -5.5079284025523451e-02 -7.4952173641324019e-02  5.0259734875616052e-02 -6.2390651561304543e-02 -8.2881459906841884e-02  5.0614225914640668e-02 -6.0157470774871130e-02 -8.2996883100779018e-02  4.9399168757098537e-02 -5.7023722490397534e-02 -7.0610001129857144e-02  5.0794179088372179e-02 -6.4349771154945543e-02 -7.8818497568468579e-02  5.0886506975078134e-02 -6.1756165488339815e-02 -7.8846027254243681e-02  5.1538023333588576e-02 -5.4540352265145552e-02 -1.0475797155346478e-01  5.1751771119232098e-02 -5.0258190566440354e-02 -1.0165233308920686e-01  5.1667955320614023e-02 -5.2501304871636040e-02 -9.8196316359837596e-02  5.1645658222568981e-02 -5.6930419083612467e-02 -1.0185502956931101e-01  5.1597705770219229e-02 -5.4390910566693207e-02 -9.4803768409540468e-02  5.1713678868849630e-02 -5.8931650550922858e-02 -9.8901803279799472e-02  5.1547560715747377e-02 -5.6032163555443888e-02 -9.1393123582134569e-02  5.1799552681449201e-02 -6.0648605466760944e-02 -9.5868968036128765e-02  5.1513730082614159e-02 -5.7508707339001416e-02 -8.7860905244449741e-02  5.1911597273811699e-02 -6.2169311294382662e-02 -9.2662146501861442e-02  5.1504103131242464e-02 -5.8882164854515924e-02 -8.4093639348120086e-02  5.2064250459748655e-02 -6.3562652310219694e-02 -8.9163923512559945e-02  5.1540994079460813e-02 -6.0175143623359170e-02 -7.9946928471525555e-02  5.2282960145627076e-02 -6.4913211749000943e-02 -8.5271235933318812e-02  5.3752092059840620e-02 -4.3265603262058035e-02 -9.8324430654903622e-02  5.1964344986656343e-02 -4.3995907084731889e-02 -9.7219720716105809e-02  5.2290177879440881e-02 -3.6129306790814726e-02 -9.1974196220379015e-02  5.1933754462041577e-02 -3.7571579130424672e-02 -8.7392102641596150e-02  5.1740851099514332e-02 -4.6000612448461743e-02 -9.3183069941712951e-02  5.3361962278563400e-02 -4.5043444370415971e-02 -9.4166925544186930e-02  5.1590561083899200e-02 -3.8847376053307799e-02 -8.3103253332113297e-02  5.1546201743177054e-02 -4.7696740097258938e-02 -8.9342707271002839e-02  5.3016657163361465e-02 -4.6548316397301150e-02 -9.0189156419962446e-02  5.1247195170649545e-02 -4.0025749592588249e-02 -7.8937199681266640e-02  5.1365876173795524e-02 -4.9197651270819751e-02 -8.5562810033971134e-02  5.2695480739811645e-02 -4.7872799677928519e-02 -8.6257476240843192e-02  5.0901752466520366e-02 -4.1167717235072086e-02 -7.4745396823057059e-02  5.1192797814990539e-02 -5.0583839533610231e-02 -8.1715065935219572e-02  5.2380818174336298e-02 -4.9082170382876308e-02 -8.2258517232372375e-02  5.0557352446001277e-02 -4.2324822196099766e-02 -7.0388167095585527e-02  5.1028214141918216e-02 -5.1914502101696701e-02 -7.7666652176548251e-02  5.2060152203137373e-02 -5.0217710538885567e-02 -7.8079795309674016e-02  5.0223517773912846e-02 -4.3520721038154124e-02 -6.5719850521406026e-02  5.0889834407877033e-02 -5.3230009016627507e-02 -7.3252892677006395e-02  5.1722851732983514e-02 -5.1290625169892398e-02 -7.3633923261424788e-02  5.3279233136184920e-02 -5.8596996000650985e-02 -1.0975400915325742e-01  5.3389626455482800e-02 -6.0846123472083076e-02 -1.0749304120278116e-01  5.3471376857273704e-02 -6.2701945254061822e-02 -1.0509783568005418e-01  5.3572445075760589e-02 -6.4232632869574799e-02 -1.0257418381205131e-01  5.3692865208937318e-02 -6.5516854003069627e-02 -9.9854235514970816e-02  5.3821820422852842e-02 -6.6600603350297369e-02 -9.6856253690335056e-02  5.3950062524170832e-02 -6.7460245260336602e-02 -9.3439798796220996e-02  5.5319743972907225e-02 -6.4794119094840411e-02 -1.1272099704806469e-01  5.5477803822142104e-02 -6.6318234436305509e-02 -1.1111544587595887e-01  4.3400863991512634e-02 -3.5110720790009611e-02 -7.3599734310062226e-02  4.4576096133644126e-02 -4.1034207780622584e-02 -8.2082875641895245e-02  4.2394794071705967e-02 -3.6653761952131984e-02 -7.1064904763377248e-02  4.3035917996011037e-02 -3.8606394344029529e-02 -6.6550239168126080e-02  4.5079881546315648e-02 -4.3540182685265834e-02 -7.7869460002730637e-02  4.3929083994736322e-02 -3.7060206492698158e-02 -6.9055534918112671e-02  4.3513796359310623e-02 -4.0449386220348542e-02 -6.2555220255522334e-02  4.5499814626497603e-02 -4.5726470957166782e-02 -7.3982320794141174e-02  4.4291767392518881e-02 -3.8853785431944551e-02 -6.5046306374913196e-02  4.3895284612729110e-02 -4.2308384914808352e-02 -5.8781038912099959e-02  4.5866584675438520e-02 -4.7789754420694656e-02 -7.0235455027228305e-02  4.4570971079596178e-02 -4.0646052395061111e-02 -6.1244768186114268e-02  4.4229719570900355e-02 -4.4302206849120208e-02 -5.5043067503625434e-02  4.6223379814484183e-02 -4.9882753731795897e-02 -6.6469080633389729e-02  4.4807080251826420e-02 -4.2557264639123293e-02 -5.7466260153560156e-02  4.4555456719976891e-02 -4.6521852357379961e-02 -5.1212523378701975e-02  4.6612667682235653e-02 -5.2141955988243893e-02 -6.2551023734146852e-02  4.5037951086407770e-02 -4.4686775587461078e-02 -5.3573213117357327e-02  4.4953651298374170e-02 -4.9043373080976206e-02 -4.7261373241029705e-02  4.7094726859887900e-02 -5.4679530812519674e-02 -5.8405656368793607e-02  4.5319079034304779e-02 -4.7128981285480626e-02 -4.9497634991210099e-02  6.4633948008568282e-02 -6.2209521305604656e-02 -1.1719415214300413e-01  6.4472261355324037e-02 -6.2832956263461748e-02 -1.1651471068359055e-01  5.4087273865533948e-02 -3.5299555541325071e-02 -9.3251665941062212e-02  5.2802555553326927e-02 -2.7438260656676192e-02 -8.6485040151580941e-02  5.2296762566517864e-02 -2.8109896181291061e-02 -8.1559268457605805e-02  5.3586464809547200e-02 -3.6559030785794366e-02 -8.8527712820118828e-02  5.1764271334192299e-02 -2.8786399845805281e-02 -7.6969669399350654e-02  5.3099545362690959e-02 -3.7662845671461859e-02 -8.4069374052992779e-02  5.1214140336563824e-02 -2.9478262136421511e-02 -7.2521223438077084e-02  5.2620623828246206e-02 -3.8678415048352545e-02 -7.9710494561186646e-02  5.0652373055154631e-02 -3.0213988238736181e-02 -6.8066195443472532e-02  5.2142936187885271e-02 -3.9651597351709256e-02 -7.5318727402692395e-02  5.0090411824000779e-02 -3.1024473635500559e-02 -6.3479009821412732e-02  5.1662052829021761e-02 -4.0619145603484799e-02 -7.0774392741577860e-02  4.9545700693489701e-02 -3.1935261116598238e-02 -5.8638972938901877e-02  5.1170072179689476e-02 -4.1610861937498154e-02 -6.5989647564056397e-02  5.8201498020682932e-02 -4.7211968137141333e-02 -1.0478653698153521e-01  5.7689221438415830e-02 -4.8802623651897831e-02 -1.0087721789326339e-01  5.7270408144371093e-02 -5.0122716977222731e-02 -9.7042800273474131e-02  5.6898273492791356e-02 -5.1232693643081230e-02 -9.3208638842671748e-02  5.6523585121093463e-02 -5.2182068266494824e-02 -8.9303716654558413e-02  5.6093203214201741e-02 -5.2990812401463638e-02 -8.5266158755603380e-02  5.5538655680830891e-02 -5.3660143009682977e-02 -8.1064605122820738e-02  4.7561468158480412e-02 -3.1313625973267013e-02 -8.1175412422591547e-02  4.8852363113979641e-02 -3.8206692434269718e-02 -8.9040808263644272e-02  4.5997689634395406e-02 -3.2499167970915656e-02 -7.8822779336458218e-02  4.6172117024103190e-02 -3.4061108772359308e-02 -7.4167550783953123e-02  4.8813769003826626e-02 -4.0202180687367348e-02 -8.4665951458875954e-02  4.7561555718638009e-02 -3.2714596961591756e-02 -7.6462644181046549e-02  4.6254881163275259e-02 -3.5481696777771722e-02 -6.9954398691140549e-02  4.8760245769148239e-02 -4.1917305028606126e-02 -8.0603928838196615e-02  4.7485035914744983e-02 -3.3994908223985661e-02 -7.2185588232922954e-02  4.6269916659939458e-02 -3.6889951228314150e-02 -6.5936690510793802e-02  4.8688515682325573e-02 -4.3498483339186905e-02 -7.6670846473092191e-02  4.7355115595512323e-02 -3.5255765449774955e-02 -6.8088264963085648e-02  4.6247456851313130e-02 -3.8380839441749338e-02 -6.1930071043592543e-02  4.8611042028671628e-02 -4.5052172293078438e-02 -7.2707661059468714e-02  4.7195693153819863e-02 -3.6583274388287700e-02 -6.3990332198356620e-02  4.6221097352136663e-02 -4.0050121961506181e-02 -5.7784735151874045e-02  4.8553517636460666e-02 -4.6673426708842135e-02 -6.8555215924816115e-02  4.7033987049883506e-02 -3.8067389107749844e-02 -5.9739394942238677e-02  4.6224153541836725e-02 -4.2002373197436001e-02 -5.3381229979268710e-02  4.8558441606489845e-02 -4.8464728085100592e-02 -6.4041128484821852e-02  4.6900904937230162e-02 -3.9822546363366872e-02 -5.5208797340517417e-02  5.9114931929994903e-02 -1.0783452024971779e-02 -8.5168933944445691e-02  5.7894869885293812e-02 -2.1925885730696107e-02 -9.0161093331629097e-02  5.7360026797090687e-02 -1.3846407207011123e-02 -8.4223112740724179e-02  5.6225792173822037e-02 -1.3591871463103762e-02 -7.8754213795216244e-02  5.6954468001564965e-02 -2.2244592013382664e-02 -8.4555460723781936e-02  5.7780877880171180e-02 -1.0327320206609879e-02 -7.9287042391384246e-02  5.5070533204990967e-02 -1.3478101052127687e-02 -7.3562132472216948e-02  5.6023926353632118e-02 -2.2554557854979822e-02 -7.9237439506101529e-02  5.6431518622996314e-02 -9.9640139478912072e-03 -7.3736022588546016e-02  5.3911297698682810e-02 -1.3469238730204473e-02 -6.8490394718388026e-02  5.5098670098899891e-02 -2.2897162489334294e-02 -7.4047546146820048e-02  5.5079993773895261e-02 -9.7193689143431072e-03 -6.8352155953509922e-02  5.2755538052119112e-02 -1.3570218310912775e-02 -6.3407655839035362e-02  5.4175213377453443e-02 -2.3301014310516753e-02 -6.8855864956533605e-02  5.3730160888311659e-02 -9.6179818728724005e-03 -6.2976597349246835e-02  5.1609837992341076e-02 -1.3781655036079612e-02 -5.8198126647091106e-02  5.3246614002464436e-02 -2.3780456450865562e-02 -6.3540720659334277e-02  5.2385832087302665e-02 -9.6807462770891126e-03 -5.7455288170979682e-02  5.0483617829011840e-02 -1.4135668938071694e-02 -5.2763008488822177e-02  5.2299139767225160e-02 -2.4340168303813636e-02 -5.7982178465159934e-02  5.1048485837865878e-02 -9.9401998485129858e-03 -5.1626221630284505e-02  5.4614219554005257e-02 -2.5918951894737745e-02 -8.7944183759007394e-02  5.3724478860534455e-02 -1.8060633061496464e-02 -8.1407690767280980e-02  5.3007024622691613e-02 -1.7870735861535269e-02 -7.6369130188751536e-02  5.3963383484692061e-02 -2.6470356955077816e-02 -8.2870672808455989e-02  5.2217255969360936e-02 -1.7864562530476545e-02 -7.1644427809447353e-02  5.3290619745307875e-02 -2.7029009592610134e-02 -7.8115992609810239e-02  5.1389565859764653e-02 -1.7966747150940560e-02 -6.7046261016214109e-02  5.2610637796364101e-02 -2.7603708945754032e-02 -7.3488166318078182e-02  5.0545224951763432e-02 -1.8176772561677518e-02 -6.2439414916928296e-02  5.1926737315478866e-02 -2.8218335921673433e-02 -6.8851555003319062e-02  4.9707720160633899e-02 -1.8502859626094111e-02 -5.7714847684372718e-02  5.1243955476481431e-