<?xml version="1.0"?>
<VTKFile type="UnstructuredGrid"  version="0.1"  >
<UnstructuredGrid>
<Piece  NumberOfPoints="970" NumberOfCells="4230">
<Points>
<DataArray  type="Float64"  NumberOfComponents="3"  format="ascii">6.463650721461493 3.596470291605579 3.815613815099348  6.514693652701041 3.684607855587582 3.757997395579885  6.412589110386342 3.687830111799737 3.694709784888746  6.384195164126212 3.735559838424223 3.74174519373683  6.487821410903786 3.731465853434069 3.809339739438575  6.439561081444277 3.644455880912332 3.867387979129496  6.415770651763115 3.692470455571341 3.919177265305211  6.461297890976367 3.778380342688427 3.860666796580569  6.356161714658309 3.783369717657451 3.788845542183626  6.39212114824125 3.740454371605659 3.970964829558521  6.434927269426897 3.825278913592571 3.911978230444661  6.328286211916702 3.831194552911334 3.835979600730119  6.368492144241999 3.788391500765839 4.022742098100755  6.408572554260557 3.872123119234173 3.963269010409621  6.300418158706827 3.878996867194937 3.883131903845408  6.344762283102531 3.836259849953751 4.07449772496233  6.382115434285004 3.918874943031298 4.014510098339257  6.272404573011869 3.926747952435702 3.930271804744632  6.320795664815916 3.884006767424091 4.126216691744807  6.355415118810237 3.965450650812361 4.065665078334353  6.244042745678076 3.97437786696588 3.977362752051372  6.341426721009768 3.56899401801585 3.778843029556944  6.317520762134079 3.618956153816961 3.826787240957032  6.293896441686621 3.668924816681831 3.874826314186038  6.270416869278469 3.718877888988204 3.922909580963723  6.2469733826775 3.768828969175752 3.971012227655307  6.223432167198774 3.818799137081181 4.019120782896769  6.199538343552494 3.868780152301651 4.067229676585769  6.283090195856777 3.790624359418568 3.485384566717517  6.344838924740769 3.733495399309016 3.599404002400371  6.408434503443205 3.834127999802419 3.532332228145272  6.374025481371288 3.882044295050191 3.573016614124848  6.314309796864122 3.782242670982499 3.641410973922465  6.250635836447146 3.840133029902228 3.522502113097883  6.340037445848613 3.930189751954375 3.613772991384103  6.284139327652633 3.831149599916885 3.683525246971407  6.218526453794524 3.889837597256622 3.559722379199852  6.306211915524442 3.978398027201646 3.654591203196887  6.254138088569759 3.88012217420488 3.725700179887015  6.186563881931395 3.93965102068257 3.597024273881936  6.272356730109612 4.026588631135444 3.695439311686399  6.224126115688215 3.929104983726484 3.767921870355071  6.154562770190195 3.989510659035552 3.634395805517965  6.2383027252098 4.074690833422824 3.736273537351519  6.193914369343162 3.978076996165948 3.810155032485379  6.320990636952144 3.874397710943856 3.398926111901971  6.28513964623609 3.923091306890662 3.433484733904657  6.249692323031323 3.972112102614688 3.468118699916807  6.214388556097717 4.021259163549065 3.502838948658067  6.179031559660169 4.070439594834371 3.537622454452762  6.074967792220976 4.118883165620611 3.074009486859115  6.154804755656607 4.128794089849634 3.229044704865526  6.175282490265809 4.194786716790276 3.108605671406667  6.135297895528843 4.246453076269477 3.127507814709163  6.115190369274482 4.179537333619359 3.251345662165154  6.037183531408614 4.170269925243566 3.091288788474767  6.095100925959593 4.297976074981031 3.14644761156953  6.075287172640041 4.230185072737784 3.273681026719843  6.281617776285978 3.646657187276422 3.662621809780461  6.255523373992585 3.697694511933386 3.705322479688196  6.229703894461503 3.748812093112151 3.748172341648022  6.204024792911872 3.799962867124957 3.791095591973557  6.178360861305195 3.851145400659129 3.834063801238517  6.1525407501811 3.902389904286908 3.877069774575673  6.126271339321464 3.95368689741053 3.920124144300029  6.349676734903204 3.466827229027058 3.885540406975466  6.405757786025227 3.529775981859191 3.850288791723207  6.382365517039835 3.578405507849002 3.901870936238352  6.330178254033447 3.518428118543942 3.936354924479181  6.359263681684164 3.62702197216203 3.953497088991631  6.310893135909526 3.569972230810783 3.987235045504442  6.336296754135107 3.675597487880276 4.005139538262781  6.291722261216885 3.621462200632529 4.038139891236418  6.313369514363189 3.724140923072457 4.056780605835915  6.272592951476651 3.672928989778399 4.089043671431184  6.290370370743386 3.772653541560555 4.108412761232541  6.253412575380477 3.724378780521115 4.139942148290173  6.26712020544099 3.821102266640476 4.160040476385259  6.23407014727069 3.77581245345546 4.190842758838409  6.433476433687435 4.154713375006312 3.057309681665361  6.506423901432536 4.219719491521031 3.030031242762612  6.464482187217543 4.215187688615488 2.929425751532187  6.425922985252949 4.274818754513857 2.940131586165983  6.471463833714085 4.282181793995038 3.046349681263517  6.389466869595572 4.208135960502291 3.07516797191653  6.387942801393215 4.33453219918128 2.950704245711454  6.437052379033549 4.344608159454704 3.062501579858102  6.346053070645667 4.261820287238678 3.092945676249151  6.350208742944023 4.394166633622571 2.961231283888904  6.40285802344444 4.40693835152533 3.078595202975915  6.302845395544102 4.315526430754735 3.110697759032367  6.312512927826847 4.453648823688211 2.971737678017228  6.368723809753261 4.469113524072429 3.094650885830136  6.259638617789639 4.369131335916306 3.128449259292189  6.274746619041654 4.512912176164666 2.982239398060833  6.334562728037166 4.531080873777639 3.110693287752059  6.216299537247099 4.422512174574041 3.146194923289874  6.236814409162728 4.571903537847724 2.992799156114263  6.30027972275844 4.592792749006757 3.126758273229456  6.172778415582352 4.475541049790947 3.163908184014494  6.554726901933983 3.566448703191423 3.877567207969727  6.462617565992262 3.480251320225566 3.918268871835763  6.571956937214316 3.496237271486922 3.945126053015287  6.552719760836015 3.543770143821468 4.002715611586033  6.442189772941521 3.529017555537673 3.97285107698832  6.533720698946699 3.613607628869071 3.93336041290616  6.533720640451266 3.591292415066041 4.060216813564906  6.422015938835965 3.577748005814942 4.027410341729159  6.51296901852598 3.66077780280613 3.989091280097877  6.514836739402811 3.638766401669312 4.117646382156114  6.492356260662495 3.707900006844493 4.044766847056182  6.506249119800857 3.830182738744907 3.617648435409911  6.500088226189926 3.90241336779687 3.53720116563983  6.465134402216361 3.950275651388036 3.580814161627535  6.474357862719951 3.877524667003433 3.664470044880315  6.442872363133895 3.925008141433393 3.71130700888269  6.430633255130899 3.998320983175234 3.624434868197777  6.411539402844958 3.972490924886534 3.758156899642612  6.396274598351173 4.046375380121797 3.668080714398241  6.380200423969815 4.01991687165294 3.804994614011227  6.361903541928635 4.094371855583406 3.711714157634735  6.348724796217488 4.067226739516419 3.851777986616019  6.327383566710181 4.142234407648265 3.755292048547791  6.203868887912596 4.122585468932238 3.777039234038875  6.317004925414279 4.114346661789289 3.898439314715724  6.292602204254998 4.189847422505236 3.798762411132592  6.401967210359246 3.626429532361361 4.081949009382984  6.471781691345442 3.754958550769226 4.100396482536626  6.381957343148993 3.675058688722974 4.136466041295535  6.451158468730973 3.801927234471308 4.155976100482961  6.36189771444983 3.723621630316889 4.190960690962587  6.430385287430568 3.848731586220726 4.21152259137914  6.341650927108677 3.772070128054211 4.245431037789309  6.441402145987162 3.929832996240397 3.453960878711816  6.40415698735035 3.978279482375925 3.492507509278248  6.367369575158355 4.026993861570049 3.531101255015312  6.330716468333111 4.075753417513495 3.569747179984351  6.294025270379641 4.124473937464824 3.608406726281966  6.257141917287242 4.173060041884769 3.64703541104895  6.219926971953262 4.22137189072464 3.685586682920305  6.239705513770527 3.554115214546155 3.861480017909975  6.838155018585018 3.839328362967101 3.769180056203329  6.741891241675317 3.86386339525707 3.715014764622325  6.783279613643912 3.755147571689992 3.81569574879296  6.764276040987083 3.801190271109987 3.87629720386351  6.718569165483397 3.911779898421214 3.771839980578431  6.818839907627107 3.886613924704059 3.829624241144246  6.745463790733703 3.847173746299733 3.936695969295646  6.695502022347353 3.959652967427213 3.828509387174267  6.799728877680132 3.933812261897329 3.889858060476915  6.726781986433571 3.893088061399006 3.996948637912988  6.672585372331891 4.007455720970686 3.885043526987618  6.780737333084946 3.980916021524804 3.949926313630206  6.708166247177464 3.938922716239521 4.057079279417544  6.649736840293038 4.055175012131248 3.941459659008732  6.761815192662241 4.027926185159551 4.009856173155846  6.689570255109239 3.984646457283571 4.117099131683765  6.626886351926474 4.10278242788169 3.997763420487582  6.742897795371343 4.074835818062708 4.069647405920596  6.670906627112911 4.030209896705137 4.176991290331312  6.603930022273063 4.150243691223229 4.053926312448088  6.723910816404469 4.121597199436525 4.12926754212936  6.363970064096202 4.009719241353451 3.254027389411394  6.442624269650574 4.07453877195851 3.247325149155052  6.398311943906991 4.088153344788501 3.138887810086482  6.35533916442365 4.139417691320068 3.161136725922225  6.402682992190459 4.126593200721786 3.277180696115711  6.324255990243751 4.060251224848655 3.282494783079351  6.312847026178038 4.191072690171663 3.183381680612439  6.363173117749771 4.178924697670035 3.307034172096028  6.284959895642553 4.111165539523889 3.310989379201887  6.270532037310002 4.242830479216505 3.205637250282797  6.323821760572169 4.231309052985784 3.336898230124316  6.245762742301367 4.162177016318629 3.339558114562721  6.228207642861826 4.294538655127353 3.227907489114886  6.284462076968439 4.283620942906397 3.36675677392444  6.206503887534309 4.213163491800529 3.368162058790197  6.18572694077299 4.346060215489539 3.250178893080579  6.244984976428173 4.335752088953947 3.
[...]
<PointData  Vectors="f_16"> 
<DataArray  type="Float64"  Name="f_16"  NumberOfComponents="3" format="ascii">-3.9718430954736560e-03 3.5752181671905858e-02 2.6846201025603474e-02  -5.0592089371476953e-03 4.0451193812054684e-02 2.9762436083970646e-02  -5.9135261547935232e-03 4.7617590679185702e-02 3.1490340277823846e-02  -3.7117782709605572e-03 4.3956489955067977e-02 3.4566695531896875e-02  -2.9267940137594050e-03 3.6574172901889905e-02 3.2352470463052035e-02  -1.8920883890585786e-03 3.1695902799694808e-02 2.9379775980145437e-02  1.1875244556967685e-04 2.7782781930541591e-02 3.1962870730940625e-02  -8.8051179517209847e-04 3.2746990208169818e-02 3.5026626311390641e-02  -1.6267024749681909e-03 4.0351299896255688e-02 3.7643889087798678e-02  2.0430330654305552e-03 2.3996857464984596e-02 3.4665594087657840e-02  1.0800343413851026e-03 2.8988584084164205e-02 3.7835356782175346e-02  3.8812105100050417e-04 3.6787804204737998e-02 4.0804147069811017e-02  3.8912175785803913e-03 2.0311801246174665e-02 3.7519466240475960e-02  2.9575556726566948e-03 2.5307582303454423e-02 4.0782375561016562e-02  2.3373744858819325e-03 3.3286816950228233e-02 4.4074896720895249e-02  5.5818335564305505e-03 1.6694586545959282e-02 4.0491528850742947e-02  4.7559720609303725e-03 2.1692272928702964e-02 4.3853455711738813e-02  4.2431124734275301e-03 2.9857557900959234e-02 4.7423314056914224e-02  7.0619948240008426e-03 1.3197522482693720e-02 4.3607298270163956e-02  6.4858611630906468e-03 1.8204371454633220e-02 4.6965912651598996e-02  6.1845723940739967e-03 2.6365403031772122e-02 5.0901410333684276e-02  -4.0780084705343070e-03 4.0724742230614827e-02 2.7366909050360315e-02  -2.0041035372346831e-03 3.6703759379854539e-02 3.0357817006046936e-02  -7.8967949238063676e-06 3.2874140931014678e-02 3.3337261029822478e-02  1.9379437818173174e-03 2.9178243842435045e-02 3.6406544865027805e-02  3.8046900505227907e-03 2.5583836157435910e-02 3.9615743302241720e-02  5.5605317202410470e-03 2.2051051557987356e-02 4.2959471060287961e-02  7.1392133743840829e-03 1.8333420505665103e-02 4.6597754065988414e-02  -9.0254642473415886e-03 6.8380762390665456e-02 3.8526231491091835e-02  -7.3495254748363360e-03 5.7351198123979041e-02 3.4749473730937175e-02  -8.4087403291275304e-03 6.2012207783299397e-02 3.8048380714769008e-02  -6.1755522632152152e-03 5.9184390777523306e-02 4.1482194517740933e-02  -5.1371289078941534e-03 5.4138837283836186e-02 3.8273418194433237e-02  -6.8260102744220003e-03 6.5763043812628735e-02 4.2320105813070746e-02  -4.1170454858877404e-03 5.6351321875906780e-02 4.4857589855824449e-02  -3.0574397049966230e-03 5.0971369801130997e-02 4.1734532136550269e-02  -4.7317660044053408e-03 6.3125437462774159e-02 4.6016967791331603e-02  -2.1403191582062154e-03 5.3506444838156440e-02 4.8262660655291369e-02  -1.0342482022429741e-03 4.7829198812127077e-02 4.5228199098636158e-02  -2.6940298343902883e-03 6.0465492850586652e-02 4.9702864306824572e-02  -1.7770572234547310e-04 5.0662254796097830e-02 5.1717527835772638e-02  9.7119099346481500e-04 4.4688385644467234e-02 4.8781253964627069e-02  -6.6054802133897698e-04 5.7775025690211042e-02 5.3431005249975065e-02  1.8300961262192109e-03 4.7847676698428640e-02 5.5217389271339415e-02  2.9834922874152812e-03 4.1543193452465890e-02 5.2414313480659065e-02  -1.0264252435928226e-02 7.4479157122846890e-02 4.1265017881991911e-02  -8.1130053901331631e-03 7.2413029025828829e-02 4.4885254534678738e-02  -6.0705142313145603e-03 7.0241049071414152e-02 4.8413481913259844e-02  -4.0891998469618938e-03 6.8012763203337628e-02 5.1935452118338152e-02  -2.1124626153978224e-03 6.5757012614582111e-02 5.5481631147210331e-02  -9.2890425632844113e-03 1.0208687268892401e-01 5.3668941585211696e-02  -7.2831281994234238e-03 8.9850458164366279e-02 5.4413959814458054e-02  -8.1741010785474442e-03 9.6324637207170494e-02 5.3473464272016921e-02  -6.4343153279977925e-03 9.5688829665995040e-02 5.6039482938129798e-02  -5.4491095814737942e-03 8.8912189320484517e-02 5.7470890755416948e-02  -7.4697530675304326e-03 1.0161109638569689e-01 5.6244068359983301e-02  -4.5621369981095712e-03 9.5078739176679389e-02 5.8612750467189063e-02  -3.4941035946514901e-03 8.7976462920220835e-02 6.0542474771975129e-02  -5.9948671215622803e-03 5.2699213110878884e-02 3.1821126969332349e-02  -3.8179947712214577e-03 4.9105341503577718e-02 3.5420493923001860e-02  -1.7674624081807880e-03 4.5668099665873145e-02 3.8952087537016629e-02  2.3890388391688540e-04 4.2306854885100505e-02 4.2515866093101713e-02  2.2171129083875083e-03 3.8966883433142113e-02 4.6151738996415281e-02  4.1663796262010966e-03 3.5596537274589175e-02 4.9926001375571162e-02  6.1349947246542502e-03 3.2079500495400377e-02 5.3924179883168333e-02  -2.0958907350809371e-03 3.0327878010168566e-02 2.3245363632361189e-02  -3.0847738511269904e-03 3.3077210662742072e-02 2.4964305111962976e-02  -1.0731390103238638e-03 2.8940720961966870e-02 2.7451610899543771e-02  -2.0632309393131057e-04 2.6099804224091607e-02 2.5752940081448811e-02  8.7217317857026780e-04 2.4994669670049492e-02 3.0005619601328994e-02  1.6532252252306936e-03 2.2178605108055954e-02 2.8282239968132412e-02  2.7478128986273900e-03 2.1213359654437807e-02 3.2667307102692299e-02  3.4458425671195321e-03 1.8477642567841870e-02 3.0918505962094233e-02  4.5212315911713841e-03 1.7573466925498583e-02 3.5474419690887701e-02  5.1259517964885436e-03 1.4944880022030545e-02 3.3718560311569092e-02  6.1133519514454749e-03 1.4042228838914348e-02 3.8456133033591224e-02  6.6100320793063185e-03 1.1560468718160233e-02 3.6693436709887964e-02  7.5058016854850033e-03 1.0676749363133876e-02 4.1673568931398224e-02  7.9138299762917426e-03 8.4248393153457061e-03 3.9998501409401678e-02  -1.2040852719899839e-02 9.3697690583289903e-02 4.5712390945571724e-02  -1.1533057452182357e-02 9.3688345392383951e-02 4.5411387373331405e-02  -1.2279132298012883e-02 9.8914819332089024e-02 4.4467265998318982e-02  -1.0733891865116205e-02 9.8294380082452074e-02 4.6704621234792319e-02  -9.9587030855632138e-03 9.2515142020907465e-02 4.8074660636510252e-02  -1.0252633995253247e-02 9.3085241234538638e-02 4.8328314300638782e-02  -9.4274856178662072e-03 9.7634700496119151e-02 4.8835936511373718e-02  -8.6608595141608579e-03 9.1400754164500123e-02 5.0675890436220818e-02  -8.7050882924501940e-03 9.2375293488959315e-02 5.0904142935997737e-02  -8.1656270931258386e-03 9.6983047472893963e-02 5.0916391618143084e-02  -7.4361931850811021e-03 9.0332673393192189e-02 5.3251446539472037e-02  -7.2170339877727814e-03 9.1658283721209974e-02 5.3457228137930260e-02  -6.8513872987173152e-03 9.6368249733412681e-02 5.3000756142586668e-02  -6.1927502436328581e-03 8.9327149671497463e-02 5.5838428377488765e-02  -5.6908593805754639e-03 9.0976713781476121e-02 5.6000115202313759e-02  -5.4381023248483576e-03 9.5822332719041198e-02 5.5146739664400049e-02  -4.8855550562501909e-03 8.8407213468747081e-02 5.8476104378066711e-02  -4.0797911014005079e-03 9.0380503306433824e-02 5.8546249867156133e-02  -3.9126016960372607e-03 9.5367552545368522e-02 5.7427019155228465e-02  -3.4982807008947774e-03 8.7587905014716111e-02 6.1206709536416971e-02  -2.3878144338658831e-03 8.9925445091923517e-02 6.1112388190280240e-02  -3.4300549496950375e-03 2.9069748496473750e-02 2.4564684498494086e-02  -2.2577940632595309e-03 2.6086862615775922e-02 2.2559284051189961e-02  -2.4630728183178364e-03 2.2747860942731707e-02 2.2013432552309493e-02  -5.0115296432268631e-04 1.8515884620436705e-02 2.3795760970413294e-02  -3.2767258376756591e-04 2.1882261908437818e-02 2.4642467685915950e-02  -1.3833501685111712e-03 2.4853576158482896e-02 2.6646794489974774e-02  1.3655853577960804e-03 1.4522419668841297e-02 2.5689935797028298e-02  1.5462706798789186e-03 1.7919716441201213e-02 2.6789352501983256e-02  5.7325962466816356e-04 2.0812694052565393e-02 2.8801524587264777e-02  3.0878784150671448e-03 1.0741338904165634e-02 2.7702466488800186e-02  2.4251218576688844e-03 1.6935209437681571e-02 3.1080135295478255e-02  -7.0596405205769121e-03 5.3128740367380869e-02 3.6167578896240310e-02  -8.0782213085410400e-03 6.0075104402513693e-02 3.9271455496227042e-02  -5.8668279798365771e-03 5.7075412467762147e-02 4.2427479799953503e-02  -4.8208249614279776e-03 4.9755131142158064e-02 3.9169218397895327e-02  -2.7948630683025145e-03 4.6389640511664096e-02 4.2216811173865824e-02  -3.8817680336025672e-03 5.4066513954918322e-02 4.5605777145366282e-02  -8.3898569147701030e-04 4.2992776400999841e-02 4.5370063809915116e-02  -1.9911556605499330e-03 5.1049078979322302e-02 4.8856813633152585e-02  1.0833098106503266e-03 3.9627841495237869e-02 4.8611590370010650e-02  -1.0879485239429575e-04 4.8049273115291655e-02 5.2175100527844673e-02  3.0170048469006913e-03 3.6363993083791936e-02 5.1907152037963651e-02  1.8183997145268130e-03 4.5114593447451112e-02 5.5534720351554039e-02  3.9584932117004805e-03 4.5109354422144150e-02 5.8751992647109820e-02  5.0204196793107751e-03 3.3280001360702187e-02 5.5232750927110268e-02  3.8328061760124570e-03 4.2306191365766160e-02 5.8917183022412042e-02  3.3532506837423491e-03 1.4159880467063511e-02 2.9059324899867060e-02  4.1255592354842181e-03 1.3220857338108087e-02 3.3513724169887057e-02  4.9649703118298848e-03 1.0598188503731445e-02 3.1492251950333672e-02  5.5348773557420457e-03 9.8396290810406923e-03 3.6068283194551222e-02  6.3104472178710834e-03 7.4720476906283738e-03 3.4097284490419801e-02  6.6620735845819186e-03 6.8907954393278466e-03 3.8814204525998784e-02  7.3714650901821879e-03 4.7403134469566214e-03 3.6986929183041230e-02  -9.1789283987371902e-03 6.7749414295192517e-02 4.1360864289769081e-02  -7.0023980394241028e-03 6.5310957342550088e-02 4.4692650953915281e-02  -5.0152655984085429e-03 6.2816830160154546e-02 4.8007806581242846e-02  -3.1180416870164938e-03 6.0297070452630448e-02 5.1351127143183198e-02  -1.2321692921454946e-03 5.7791502812463966e-02 5.4732093768538131e-02  7.0557474598145374e-04 5.5342692026821447e-02 5.8138562539709109e-02  2.7172995243654983e-03 5.3016440749393268e-02 6.1547449707096608e-02  -8.8496894942532186e-04 3.4160691326323045e-02 2.8718544707572704e-02  -5.3021414783071341e-03 3.6830664308746625e-02 3.1227246197547822e-02  -5.7422923388629910e-03 4.2226353418085873e-02 3.3638099493783519e-02  -4.7278960557484003e-03 3.2970660289652946e-02 2.8729804084356700e-02  -2.8625576407846206e-03 2.8449161571164925e-02 3.0635808714523038e-02  -3.8566590694496983e-03 3.7970870465572085e-02 3.5877656729869929e-02  -3.5670982852360833e-03 3.2262094069578494e-02 3.3226167542211894e-02  -1.0354903436944844e-03 2.4084253516735668e-02 3.2703767647611910e-02  -2.0525831209145277e-03 3.3785994161083313e-02 3.8345477924887052e-02  -1.8650133373516941e-03 2.7827290561261833e-02 3.5434481864035451e-02  6.9746222895959470e-04 1.9835791846645912e-02 3.4948365793178920e-02  -3.2318075517845249e-04 2.9669949403457227e-02 4.1015768774816316e-02  -1.9995513390904364e-04 2.3497782998156889e-02 3.7867988904209088e-02  2.3509362751380114e-03 1.5772381511740055e-02 3.7349300183663871e-02  1.3717460825118299e-03 2.5618640480043850e-02 4.3868260154557553e-02  1.4246258880563224e-03 1.9274111678531380e-02 4.0484117921448508e-02  3.6947350823314882e-03 1.2134206539156273e-02 3.9898309809300113e-02  3.0453865255331740e-03 2.1682261748639839e-02 4.6861081440348867e-02  2.8150501928007501e-03 1.5399411303639306e-02 4.3273092070252789e-02  4.7080476567519392e-03 8.9725410988919715e-03 4.2678568329456011e-02  4.6579912717620558e-03 1.8032904685094265e-02 4.9991938036820366e-02  3.9115667438862130e-03 1.2019372691251138e-02 4.6250153001138758e-02  -1.1337586797946204e-02 8.3817161912939003e-02 4.4876834779538230e-02  -1.0932800932465490e-02 8.2477178848306534e-02 4.5444131001970874e-02  -1.2036943867754588e-02 9.0114292868660156e-02 4.5588042314139467e-02  -1.0141539301643798e-02 8.9376139210245231e-02 4.8500369435512079e-02  -8.9219614384394817e-03 8.0983086290936479e-02 4.8521047896526781e-02  -9.3009259114010673e-03 8.2519546905724647e-02 4.8151088177785524e-02  -8.4202543092858472e-03 8.8485642237505935e-02 5.1353689686302668e-02  -7.1226658863125861e-03 7.9372071763143523e-02 5.1607204527261814e-02  -7.4209919535365276e-03 8.1101387071361011e-02 5.1357326984782112e-02  -6.7769324907837767e-03 8.7539087659744524e-02 5.4186308002034791e-02  -5.4144040646899178e-03 7.7729106403023898e-02 5.4710276556266237e-02  -5.6019500632992648e-03 7.9607396257409646e-02 5.4545713104106108e-02  -5.1163872975765008e-03 8.6602948026931220e-02 5.7015330918160093e-02  -3.7074174463116870e-03 7.6124274415844448e-02 5.7819973368897125e-02  -3.7654647861872052e-03 7.8104046385073275e-02 5.7733514887246651e-02  -3.3821711533365988e-03 8.5737667630818817e-02 5.9848949491616781e-02  -1.9424533193403868e-03 7.4620928779301585e-02 6.0918444920482089e-02  -1.8535063324719152e-03 7.6664990981125780e-02 6.0923335912417428e-02  -1.5581636268537000e-03 8.5006865897463660e-02 6.2671955185172087e-02  -1.1475485911343539e-04 7.3303938739244540e-02 6.3971996880682822e-02  1.4593579923663302e-04 7.5383457828746864e-02 6.4136170174632440e-02  -1.3084119572683043e-02 9.9197961844362831e-02 4.5248348960096114e-02  -1.1343617264302230e-02 9.9012517858561647e-02 4.7574126965726327e-02  -9.7642998054768074e-03 9.8642793740771909e-02 4.9838092171173506e-02  -8.2309339583613254e-03 9.8175572241381737e-02 5.2061861302077690e-02  -6.6400340696148776e-03 9.7689913039620019e-02 5.4272733275822611e-02  -4.9320156890278397e-03 9.7261105573067996e-02 5.6495184368361193e-02  -3.0955873310920205e-03 9.6981033724251986e-02 5.8753956282655458e-02  -8.0526260402238297e-03 1.0194347427867696e-01 4.8258312750498827e-02  -8.4262530063837736e-03 9.7794376121344312e-02 5.0104172021615545e-02  -9.3478791926325470e-03 9.8613035348461997e-02 4.8302072223038200e-02  -6.7180710195658298e-03 1.0141620814519973e-01 4.9726582914850548e-02  -7.4213364504531242e-03 9.7014816976450036e-02 5.2004061957515064e-02  -6.8753514665619931e-03 5.2984539697313419e-02 3.4631625277853420e-02  -4.6179987688416942e-03 4.9620455491884735e-02 3.7822064557127943e-02  -2.5583820737088998e-03 4.6317310475398665e-02 4.1017818118703205e-02  -5.4902244324758374e-04 4.3003349387093749e-02 4.4295821777188125e-02  1.4281671407452327e-03 3.9716114869076662e-02 4.7658951200706574e-02  3.4081691907277981e-03 3.6492459304340273e-02 5.1078062453615555e-02  5.4623109212812802e-03 3.3348973834913927e-02 5.4592846775245729e-02  -9.2954243112173332e-03 1.0340572397252651e-01 5.2084904315204482e-02  -9.5955782118714340e-03 1.0676613312881103e-01 4.9111083183380817e-02  -7.9859068757337209e-03 1.0657378434667492e-01 5.0573531331415095e-02  -7.5798412323953308e-03 1.0309028107698065e-01 5.4191933773400446e-02  -6.1927821292014898e-03 1.0640486984325280e-01 5.2056821299914575e-02  -5.6911561773592021e-03 1.0277952919054127e-01 5.6301552915276935e-02  -4.1679843865815762e-03 1.0636439291634768e-01 5.3578869280912288e-02  -3.5612275978162355e-03 1.0258352401695447e-01 5.8437178906967403e-02  -6.5861063166274998e-03 4.9115258652107439e-02 3.6570631425170107e-02  -7.3857929036940037e-03 5.5023524698410403e-02 3.8220194525384325e-02  -6.0688543067922854e-03 4.5262080684271039e-02 3.3743855409982225e-02  -3.9435440705289267e-03 4.1437635464850048e-02 3.6288821616909654e-02  -5.2005226851818184e-03 5.1586962324838878e-02 4.1100767761811922e-02  -4.5232148616228653e-03 4.5252173975687114e-02 3.9128886403732827e-02  -2.6744213848087367e-03 4.1413181852158684e-02 4.1888353839015485e-02  -3.2712580911374192e-03 4.8169643448787873e-02 4.4077017308047563e-02  -1.9661969753501673e-03 3.7621445043512197e-02 3.8968209490616905e-02  -8.9180560353560633e-04 3.7590128327253898e-02 4.4822998983357731e-02  -1.4149095920379009e-03 4.4724821287178008e-02 4.7178345242502147e-02  -7.9248995310236001e-05 3.3826554744004020e-02 4.1814470575493826e-02  8.6294680034767156e-04 3.3821002825679181e-02 4.7903996566610915e-02  4.2330580612701856e-04 4.1311938611724976e-02 5.0374953065804355e-02  1.7484501636354016e-03 3.0088983633062571e-02 4.4803423536218301e-02  2.6463548854564734e-03 3.0144019220021870e-02 5.1092391367890587e-02  2.2841407174387937e-03 3.7989510465609062e-02 5.3641010222026365e-02  3.5658785139635039e-03 2.6447224605062249e-02 4.7893807019154779e-02  5.4123283928440959e-03 2.2973071350015195e-02 5.1053389423670589e-02  4.2169542128583292e-03 3.4812957205806398e-02 5.6988449513208618e-02  4.4822907084222791e-03 2.6622075973126408e-02 5.4381876703144219e-02  -1.1398310942700163e-02 8.2970125399314754e-02 4.3822019080338649e-02  -1.0443461337686200e-02 7.6203843025023629e-02 4.3236940271316950e-02  -8.3179778667954105e-03 7.4297655873262078e-02 4.6583237968821273e-02  -9.3307393206691451e-03 8.1571092601595396e-02 4.7280384326509661e-02  -6.3410004505391809e-03 7.2260964367796832e-02 4.9897826253330987e-02  -7.3814181989733758e-03 8.0038453388836805e-02 5.0699515176808665e-02  -4.4463281020900216e-03 7.0167771035214946e-02 5.3214277074738192e-02  -5.4709959495408715e-03 7.8412583703799651e-02 5.4098744059781129e-02  -2.5594654195058679e-03 6.8075580806163896e-02 5.6545746559055844e-02  -3.5304015060207638e-03 7.6738359201106429e-02 5.7508607862988802e-02  -6.1528258003975286e-04 6.6045404634567234e-02 5.9880529861812658e-02  -1.4901347832505611e-03 7.5084205501098719e-02 6.0930928007890128e-02  1.4424104498921382e-03 6.4146319573682983e-02 6.3187709180483026e-02  7.1138545372159548e-04 7.3599977257276128e-02 6.4303548912524877e-02  -4.5315160192186165e-03 1.9100039009890910e-02 2.1288938231009871e-02  -4.4344332447122442e-03 2.4060700244895209e-02 2.4359161788852984e-02  -3.8620355978579725e-03 2.1192875808950649e-02 2.2559231597604298e-02  -2.0946297321215090e-03 1.6392296063713275e-02 2.3946385898744052e-02  -2.7815822979737953e-03 1.9174428659964427e-02 2.5894593644707059e-02  -2.9423514907967168e-03 1.4087420390104197e-02 2.2571064010862649e-02  -3.5658762183565188e-04 1.1896675595711335e-02 2.5423913389323375e-02  -1.0723131708059767e-03 1.4593852868271473e-02 2.7537656954917448e-02  -1.4187170904238656e-03 9.5795007195163488e-03 2.3912367003298490e-02  9.5283391951714444e-04 7.9171426052088087e-03 2.7019917427628676e-02  3.0311893530460406e-04 1.0458897651961768e-02 2.9315986862790563e-02  -5.4535034157317383e-04 5.8901953440016475e-03 2.5369716368216656e-02  1.8030551633034138e-03 4.7512913818108845e-03 2.8745229758223800e-02  1.1614042990826976e-03 7.0925268799532917e-03 3.1261880472729257e-02  4.8356635018707922e-05 2.9873925690839086e-03 2.6986747572176110e-02  2.5341047884906761e-03 2.1367499482696571e-03 3.0683374612595356e-02  1.8368129424174691e-03 4.1535257883816290e-03 3.3454628534815435e-02  -1.2774174601790199e-02 9.2052594229529841e-02 4.4976503172648181e-02  -1.3369003147020660e-02 9.7546223641740648e-02 4.5488921592669089e-02  -9.0696554924540491e-03 9.0718763362519592e-02 5.1343298027906777e-02  -9.8537041136742450e-03 9.6897620862281306e-02 5.0889122189862732e-02  -2.4934298068632547e-03 9.4604388333722686e-02 6.1211906114926981e-02  -1.3577370129017731e-03 8.7132226754852896e-02 6.3653795722262790e-02  -5.1439284946357975e-03 3.8187892091681247e-02 3.0970078784040803e-02  -3.1187276662942276e-03 3.4033216484864598e-02 3.3173114331706527e-02  -1.2064412522745066e-03 2.9936352818599500e-02 3.5566511055920978e-02  6.2351882410139074e-04 2.5912503579244298e-02 3.8131037492644120e-02  2.3823441164487927e-03 2.1999107078314335e-02 4.0860299090182031e-02  4.0623423352944390e-03 1.8235346147498013e-02 4.3732078776796371e-02  5.5897361489633136e-03 1.4764396025896758e-02 4.6714559129263838e-02  -7.5402035132851117e-05 6.3510114617336855e-02 5.9048889334467065e-02  2.1080943561366423e-03 6.1293010093303762e-02 6.2581167317348807e-02  -3.8230813533715658e-03 1.6233957691731058e-02 1.9922018176054268e-02  -6.5489228535790768e-03 3.8256518310743719e-02 3.1525716328863806e-02  -6.6176967754935541e-03 4.2636992255521769e-02 3.4394727945025266e-02  -5.5650049476056824e-03 3.3720765454642608e-02 2.9633623024808858e-02  -4.2306627956206358e-03 2.871579