<?xml version="1.0"?>
<VTKFile type="UnstructuredGrid"  version="0.1"  >
<UnstructuredGrid>
<Piece  NumberOfPoints="1003" NumberOfCells="4337">
<Points>
<DataArray  type="Float64"  NumberOfComponents="3"  format="ascii">3.288163292535236 3.937573950981149 3.142660948434879  3.225730989058279 4.038675465531924 3.041908240934304  3.350155324002604 3.974470379633787 3.041989149737127  3.264625488995217 3.886663547692261 3.11221340607416  2.986277671797887 3.592598128501711 3.137398683642794  3.041567774085228 3.496060869518975 3.247244131348483  3.115823031504233 3.536779643129708 3.140938818518286  3.135990855060174 3.586671188653702 3.172534161838594  3.059474701957411 3.544511635526056 3.28258735655184  3.006577463119065 3.642490950397726 3.17065842148482  3.077152020521054 3.593136194949722 3.317906482004051  3.026660367657235 3.692569711959859 3.203866847965311  3.155911798948797 3.63681525168885 3.204114823865409  3.094785876144126 3.641860323570544 3.353308462808317  3.046696776724841 3.742734425224227 3.237124787338001  3.175786966340119 3.687094011344705 3.235779187714699  3.112468595399797 3.690644992222295 3.388783298753195  3.066776213068878 3.79293395446035 3.270434493832522  3.195735297288416 3.737457363154048 3.267528488038144  3.130283361406509 3.739450132047952 3.424324921882187  3.086990304243241 3.843112908877038 3.30380329963597  3.215863688299354 3.787853571899883 3.299369851968494  3.107414666325414 3.893207575615107 3.337237100753099  3.148323902198049 3.788235497488218 3.459942637152615  3.236281317623143 3.838223817029808 3.331303325889435  2.820731287567142 3.508943699533167 3.327927496788878  2.900762578416398 3.559716878095457 3.238164094334091  2.787991127870957 3.621125335142153 3.214631296558807  2.806989393869743 3.670162074058966 3.251845732481587  2.919302513688376 3.60798915781226 3.27509769678997  2.838114047179361 3.554902916448249 3.367917369153992  2.825827421804375 3.719309669217432 3.289024950603445  2.93764902359691 3.65643289615987 3.31200252896593  2.855296315272914 3.600991618194576 3.407870075934251  2.844613311835037 3.768483358076458 3.326219063995225  2.955960719983703 3.704929591342174 3.348951677607486  2.87242110453756 3.647116010318209 3.447858209389945  2.863412772920471 3.817641958491854 3.363431172080416  2.974309257283959 3.753444727146863 3.385945649045448  2.889562203156963 3.69324617556362 3.487879651301826  2.882283645002977 3.866746905644245 3.400665040759265  2.992773028971054 3.801943055565843 3.422990129571316  2.906792727924162 3.739352215305968 3.527932392218974  3.011434131106305 3.850387007097149 3.460089013368075  2.924191161236933 3.785400230082424 3.56800951892843  2.901291639773018 3.915743947142503 3.437925105508757  2.263739095604346 3.989393029589581 2.675945984533044  2.353332177045723 3.994619097826134 2.592558501573133  2.256276178222203 4.015416106807783 2.526298349788457  2.264968825426187 4.082125262391201 2.536177822936178  2.362181260409959 4.061099769480291 2.604097458431347  2.271501186037751 4.054915535039754 2.690033470458574  2.370953939071256 4.127457379380338 2.615659680856523  2.279208577712434 4.120307232794939 2.70411118756  2.273557138964084 4.148675326484358 2.546076117649395  2.37967178116498 4.193684129113223 2.62721700500717  2.286867058172065 4.185550555348672 2.718165349011371  2.282081941706424 4.215086121270216 2.555969156549196  2.38835590426643 4.259788413870996 2.638759640997301  2.294495572600272 4.250657298503577 2.732199004058616  2.29057960994721 4.281364681450384 2.565847390619986  2.302112217365663 4.315644889956825 2.746210558234514  2.39702612923506 4.325764659646089 2.650276687471055  2.299075905012622 4.347511951149433 2.575701648977112  2.309755593434202 4.38051575762164 2.760168831391613  2.405725256870031 4.391619731732896 2.661740250436861  2.307613155229197 4.41352349930434 2.585508145750961  3.076298985872936 3.38457634063014 3.374025248217059  3.162501659847572 3.430754102287368 3.280543500950255  3.179665916933239 3.480032388314424 3.31429244015428  3.090823460682293 3.432001739379634 3.411743414161654  3.196592179572094 3.529539707707255 3.348117492912951  3.105141203170959 3.479557077378597 3.449513681526354  3.213458199353285 3.579183532035726 3.382056177927662  3.119392720160763 3.527194643476439 3.487374592605122  3.230388290768343 3.628935316060894 3.416087211458825  3.133676315439286 3.574910554860476 3.525324830806683  3.26489812989024 3.728704404334838 3.484426472604678  3.162690003117009 3.670572877023677 3.601438035223623  3.148078370544508 3.622702154716962 3.563344668780445  2.763697831002166 3.80656762028744 2.924302968967245  2.937841376857757 3.745683902424954 2.924913756808267  2.864841965034201 3.817713144340849 2.839041648790874  2.882830809276775 3.876076891256537 2.866633481769498  2.958527547519826 3.799981706566086 2.955295621813418  2.782259133316284 3.863797288864566 2.952854799841286  2.900656232552805 3.934441026662773 2.894151159603251  2.979001729636716 3.854389493958998 2.985598182607595  2.800646822256732 3.921021146388345 2.98133106196736  2.918395470011302 3.992781882119343 2.921633509939295  2.999397417380621 3.908834387853551 3.015883249079161  2.818947796413277 3.978209414798778 3.009767575638004  2.936114936464128 4.051069292741908 2.949102566650463  3.019801061690873 3.963262369460008 3.046175643611598  2.837223469155231 4.035334156693275 3.03818788263315  2.953867836754327 4.109270322943645 2.976563075990807  3.040285360772465 4.017619132174453 3.076485436260492  2.855519120443873 4.092359774850128 3.066600049902711  2.971702606167059 4.167359087584215 3.004002917931622  3.060918687257533 4.071839953802469 3.106811374301039  2.873900491734001 4.149251655122272 3.094990719994813  2.836635843970781 3.736612882100543 3.011364781777564  2.856683346000841 3.790659729959093 3.042641637561716  2.876544641719542 3.844787035238532 3.073837187375155  2.896325771967041 3.898930016520249 3.105008917571274  2.916104813198131 3.953040536428476 3.13618114088367  2.935945281642192 4.007069761203581 3.16736410711395  2.955898714666129 4.060968549148182 3.198554770292423  2.649555133044372 3.417615644304107 3.491401184263535  2.732293074698326 3.462470434308234 3.421298012400821  2.624491177852414 3.532044655354686 3.390624734536594  2.641021958750786 3.576497404894073 3.434058366970059  2.748853427758583 3.506293642538967 3.464326907573698  2.664291604269348 3.458239690353757 3.538133060456026  2.65739067767597 3.621032173172465 3.477442367886337  2.765220352480967 3.550208743978511 3.507345935445761  2.6788660182833 3.498918018357287 3.584851387856364  2.673711961380508 3.665552917073718 3.520837351593587  2.781539567917684 3.594129477768279 3.550396523132443  2.6933865933672 3.53958219429797 3.631585273139176  2.690037280217042 3.710042615133556 3.564238025948491  2.797876847626001 3.638040326352461 3.59347301561661  2.707912871548082 3.580223830896606 3.678332165006723  2.706417529635827 3.754478462559935 3.607639289536303  2.814293721732993 3.681928575130737 3.636572086633925  2.722499339792514 3.62084104075612 3.725086281694756  2.722904481764146 3.798840988478972 3.651027985729682  2.830864889484881 3.72576992423201 3.679687563663668  2.737206957676064 3.661417750999456 3.771839646210373  2.794191844673088 3.90488545313696 2.669328444773721  2.921140361878709 3.899845557949112 2.587871617952234  2.816849937370849 3.934525772453309 2.523120351328311  2.828482681919545 4.001959111653444 2.537283542134021  2.934777867499268 3.965204442430245 2.607001253406865  2.808397633846603 3.969242349457228 2.688973643869843  2.840027887005366 4.069284300979682 2.551458561369035  2.94830676643261 4.030476038107774 2.626105409122631  2.822484751245394 4.033529126249054 2.70860613217586  2.851511346418542 4.136513606291817 2.565624701521581  2.961763186563983 4.095677968069948 2.645191528207802  2.836501890747275 4.097738246721776 2.728220820838875  2.86295682343348 4.203659886701319 2.579775555449288  2.975188240398183 4.160812453399219 2.664262524602912  2.850486131424828 4.161864426641857 2.74781623233423  2.874390247104927 4.270726823769182 2.593901389900857  2.988618925550502 4.225872938986453 2.683313451105667  2.864473169409977 4.225900750832853 2.767383025443874  2.885837663531267 4.337718291971792 2.607984841311268  3.002087161550537 4.290853182798684 2.702335970455302  2.878502719150611 4.289831070265084 2.78690223378837  2.985814052791135 3.804206092899993 2.787799745308837  3.113319936793327 3.78533303162311 2.725971621106687  3.019808268997354 3.857579050138642 2.654316635228986  3.036908559155329 3.919151848739952 2.67934191289151  3.135201337393985 3.840749000570707 2.756185540299115  3.005504908109335 3.86132384021976 2.816621557242786  3.053841544950082 3.980728516074576 2.704294784749723  3.156834457289667 3.896319890317935 2.786303476440875  3.024998159002847 3.918519990714322 2.845363423041979  3.070700097390565 4.042295015562946 2.729224802565482  3.17838688636772 3.951959272531123 2.816412385912273  3.044414648690567 3.975738204794887 2.87408469966871  3.087552458603553 4.103826766898949 2.754155456186254  3.199972073489881 4.007595711296102 2.846549998479365  3.063836496865434 4.03293154694686 2.90281073209882  3.104446885541222 4.165297832764605 2.779094311363818  3.221663100232127 4.063158716789412 2.876727087730811  3.083328516659992 4.090056831169459 2.931550801662935  3.121418147653789 4.226696540324741 2.804044059276406  3.243509183426055 4.11857492457797 2.906943342548374  3.102945750671807 4.147077674273476 2.960303624474087  3.090712136085501 3.720948950975469 2.858471074013983  3.042345794986166 3.676658853915302 2.968892358956009  3.149253561589558 3.632211317963186 2.961336979739941  3.064551845337561 3.728453737703698 2.999547811864747  3.113341558499093 3.773726093134361 2.889034653469623  3.172480080199433 3.682775090741899 2.991466372445062  3.086544827350017 3.780447260347379 3.030164299990756  3.13575723496617 3.826683752678677 2.919537227
[...]
<PointData  Vectors="f_16"> 
<DataArray  type="Float64"  Name="f_16"  NumberOfComponents="3" format="ascii">2.7924545773911114e-02 1.0932870188939195e-01 6.0942312399907203e-02  2.8031112997334819e-02 1.1179585074973750e-01 5.3967014176835339e-02  2.7268219544128579e-02 1.1536464798771381e-01 5.6871751289977138e-02  3.0170171652796934e-02 1.1063239314732216e-01 6.1036358753010271e-02  3.9654703422861516e-02 1.0160948415622027e-01 5.3725208842665004e-02  3.8347735721409794e-02 9.6244105968052288e-02 5.1935028367820393e-02  3.8014504867791510e-02 1.0474448191862228e-01 5.4405806690027571e-02  3.6435533009702967e-02 1.0375070859215808e-01 5.7271478457585373e-02  3.6797681383398770e-02 9.4394040298521165e-02 5.4897798985416746e-02  3.7969707738908308e-02 1.0068133783663902e-01 5.6103657406455440e-02  3.5285452203841335e-02 9.2415462242704902e-02 5.7527489757034624e-02  3.6392844064637046e-02 9.9536572106497828e-02 5.8091695103306348e-02  3.4936882928556540e-02 1.0255366509264768e-01 5.9647547367720231e-02  3.3803661990643594e-02 9.0294197791182737e-02 5.9839638037907213e-02  3.4911021934219029e-02 9.8184475132280971e-02 5.9737089309578037e-02  3.3523790848147050e-02 1.0115925253240242e-01 6.1589073582968383e-02  3.2294145645592624e-02 8.8000501886828814e-02 6.1927853389123121e-02  3.3332005424130270e-02 9.6628010830451416e-02 6.1159579950955306e-02  3.1997204995323075e-02 9.9506867358865048e-02 6.3300620565386420e-02  3.0599311210942257e-02 8.5473153790652900e-02 6.3967180393989187e-02  3.1534004917978267e-02 9.4852366552044667e-02 6.2455898124694036e-02  3.0229960327397352e-02 9.7548804498156783e-02 6.4899563963004600e-02  2.9418503362780762e-02 9.2840776889688600e-02 6.3660523171601438e-02  2.8644684378620600e-02 8.2708285883043409e-02 6.6039257819903371e-02  2.8111066044484295e-02 9.5238548037597417e-02 6.6433335607143887e-02  4.0596414146296410e-02 8.5668205509154494e-02 4.8755604676264053e-02  4.0129248633767975e-02 9.3652719248710964e-02 5.1634328765901148e-02  4.1322573970260533e-02 9.2530921589652954e-02 5.1219481265578300e-02  3.9631202547225845e-02 9.1042028624862728e-02 5.3304294243099959e-02  3.8465213208507126e-02 9.1963120618457350e-02 5.4095302324649965e-02  3.8999084269834478e-02 8.3322691666574078e-02 5.1198525362924831e-02  3.8092198471394820e-02 8.9439881584732248e-02 5.5131116098357663e-02  3.6888557943552940e-02 9.0132371112117984e-02 5.6287086366154766e-02  3.7476507112487283e-02 8.0931749614638698e-02 5.3427363138220517e-02  3.6606727365947625e-02 8.7699600957044904e-02 5.6765463392799240e-02  3.5377958547885585e-02 8.8157556179762911e-02 5.8231319985113196e-02  3.6012182633546545e-02 7.8456119933782695e-02 5.5501317016684600e-02  3.5061627849092121e-02 8.5829100684934295e-02 5.8255787950187599e-02  3.3828933230023783e-02 8.6041497468456046e-02 5.9979885645691421e-02  3.4628495310853880e-02 7.5922214479201347e-02 5.7422589999656840e-02  3.3366045865557005e-02 8.3858507981893912e-02 5.9669668586560004e-02  3.2103463056866670e-02 8.3780119971158945e-02 6.1653491627419746e-02  3.3160865178981279e-02 7.3318851596932799e-02 5.9284049383360064e-02  3.0115899981267957e-02 8.1415400069362306e-02 6.3314920035493966e-02  3.1420381855381728e-02 7.0623105941329228e-02 6.1143810990316023e-02  3.1419766273153210e-02 8.1841339642674107e-02 6.1093132068245556e-02  4.3620295891678595e-02 9.3566812898871754e-02 4.1964700352761397e-02  4.2444191253315687e-02 9.2694625589521670e-02 4.1574044645614011e-02  4.3022378854349688e-02 8.9855971237425961e-02 3.9967024459730251e-02  4.2509990601865971e-02 9.0084493482284603e-02 3.7613554505207973e-02  4.1737487328860429e-02 9.2917564157901006e-02 3.9634308460184162e-02  4.2959491520343646e-02 9.3710316200027816e-02 4.0719021069460376e-02  4.0958921503287199e-02 9.2849888789406615e-02 3.7620432853298455e-02  4.2217758151322005e-02 9.3570657082117842e-02 3.9347449803209721e-02  4.1894148967230357e-02 9.0007461152944196e-02 3.5235561085098156e-02  4.0134221468490841e-02 9.2535578307164731e-02 3.5543856374715868e-02  4.1430517367674898e-02 9.3187372340146263e-02 3.7889691275791157e-02  4.1220427349196828e-02 8.9674474438744420e-02 3.2825540488645714e-02  3.9281760113012203e-02 9.2000871394593578e-02 3.3422397724372874e-02  4.0619871829150403e-02 9.2585582661144611e-02 3.6379787929283938e-02  4.0518256870588160e-02 8.9118484144381380e-02 3.0377471821064983e-02  3.9804879365325806e-02 9.1777789838777046e-02 3.4847954032437123e-02  3.8417142148545594e-02 9.1262174538205260e-02 3.1276033210762159e-02  3.9811879889933115e-02 8.8358666066672933e-02 2.7890084064342013e-02  3.9009215960161610e-02 9.0772705458554648e-02 3.3327614075895948e-02  3.7555344228093118e-02 9.0351534985269377e-02 2.9135099380707123e-02  3.9115440373895277e-02 8.7378142379008969e-02 2.5357591895376317e-02  3.6758402459233966e-02 8.6540515906928989e-02 4.7611992341754276e-02  3.6128748509176592e-02 9.6207010395517087e-02 5.1211415987303617e-02  3.4792829159101070e-02 9.4102629677716126e-02 5.4718587937258152e-02  3.5380540480371113e-02 8.3648013233949214e-02 5.0915619788455158e-02  3.3420945968520376e-02 9.1903484810639091e-02 5.7807669740251186e-02  3.4021477500291560e-02 8.0763547783949508e-02 5.3924992511901887e-02  3.2060206192082302e-02 8.9582063293614761e-02 6.0546360672122233e-02  3.2672529673504772e-02 7.7825667059456441e-02 5.6698279587472679e-02  3.0625468168405754e-02 8.7045699377210295e-02 6.3133693098178942e-02  3.1362206670356635e-02 7.4801677139426218e-02 5.9298729244677099e-02  2.7191606000590621e-02 8.1036655687330691e-02 6.8362987574495757e-02  2.8416941700450647e-02 6.8041634200659618e-02 6.4661429741685594e-02  2.9974640158539852e-02 7.1597806639426873e-02 6.1917469842420109e-02  4.1130523736771230e-02 1.0221037406607841e-01 5.1117804269184532e-02  3.9755607543841158e-02 1.0690593904014641e-01 5.3897815515544206e-02  3.9847902961230225e-02 1.0541075642468424e-01 5.1783772791219616e-02  3.8265802161449092e-02 1.0601641014432531e-01 5.1594169994522314e-02  3.8119642207583376e-02 1.0733665566800231e-01 5.4594683615763667e-02  3.9534349560107832e-02 1.0236611509577112e-01 5.1581610779827015e-02  3.6775621461266984e-02 1.0620902042753291e-01 5.1218210294300168e-02  3.6642879678176851e-02 1.0733967671539214e-01 5.5011625469588654e-02  3.8029143477221673e-02 1.0222056119484131e-01 5.1806938492340381e-02  3.5272751554726423e-02 1.0608780863327609e-01 5.0654630552498081e-02  3.5141755997821419e-02 1.0700840704747085e-01 5.5168670696216122e-02  3.6526801427451079e-02 1.0182729671062826e-01 5.1842038994374326e-02  3.3673312590518790e-02 1.0572607908462116e-01 4.9908039232306349e-02  3.3511065554283535e-02 1.0643296683582167e-01 5.5099829196525514e-02  3.4949599318358969e-02 1.0123302126685241e-01 5.1727261496783979e-02  3.1906772196472442e-02 1.0518232726098116e-01 4.8987481019699561e-02  3.1659221368375512e-02 1.0567228184964671e-01 5.4818695629256106e-02  3.3228710990793317e-02 1.0047361799714415e-01 5.1496494448017675e-02  2.9919993328558301e-02 1.0454722895073280e-01 4.7894693649890109e-02  2.9481947253733230e-02 1.0473939676399631e-01 5.4303267812364948e-02  3.1300777382227384e-02 9.9543004793594403e-02 5.1157253116302870e-02  4.0882228778967522e-02 1.0236155530128700e-01 5.2814078501692015e-02  3.9213107272893191e-02 1.0221975613414205e-01 5.3971381025007828e-02  3.7670368113803421e-02 1.0178111817489990e-01 5.4833193943480484e-02  3.6134527426311645e-02 1.0109497539335716e-01 5.5459347281620004e-02  3.4502087357256968e-02 1.0020253183278620e-01 5.5900841186088977e-02  3.2677881487420436e-02 9.9138773456292920e-02 5.6205800922960868e-02  3.0580610785505929e-02 9.7935799561925024e-02 5.6449875661195678e-02  4.1180955919660478e-02 6.9591250134866639e-02 4.3684893228264909e-02  4.0806622326161029e-02 7.6769239541866027e-02 4.6096811765829762e-02  4.2033942629535095e-02 7.7653087614360683e-02 4.6843084072317270e-02  4.0599116782054301e-02 7.5078674475185472e-02 4.8732759052082304e-02  3.9349773952265403e-02 7.3908879335921454e-02 4.8242207831470339e-02  3.9827466142359332e-02 6.6357379007662934e-02 4.5446522160760026e-02  3.9277913724714224e-02 7.2521731187378369e-02 5.0530469779049944e-02  3.7935933189911106e-02 7.1054307978773698e-02 5.0283687689008032e-02  3.8575995470148644e-02 6.3135843652135926e-02 4.7183086004563654e-02  3.8027224164039343e-02 6.9927995729448286e-02 5.2276301649478926e-02  3.6616462236561460e-02 6.8184430266259213e-02 5.2251143004554031e-02  3.7452368439669037e-02 5.9935120891158197e-02 4.8886982108288762e-02  3.6853433792542148e-02 6.7304956264814697e-02 5.3966090660691537e-02  3.5404094367540259e-02 6.5304820587292506e-02 5.4137781291455064e-02  3.6491536951996306e-02 5.6762626903948094e-02 5.0558508565642916e-02  3.5682486431882460e-02 6.4672107623175365e-02 5.5625284901049281e-02  3.4273871413741275e-02 6.2411454876540776e-02 5.5961731931219449e-02  3.5745076244113549e-02 5.3644074062693149e-02 5.2197855591817055e-02  3.4350752978393059e-02 6.2004735184807883e-02 5.7357474562484134e-02  3.3066109633896563e-02 5.9332538311941761e-02 5.7964370379562986e-02  3.5248843668323912e-02 5.0267515380844549e-02 5.4027962342789157e-02  3.9201773039139798e-02 1.0166845776589625e-01 4.7717340952905002e-02  3.7452427045067023e-02 1.0227424731295640e-01 4.7976045066275438e-02  3.7988134750373298e-02 9.7446542459299942e-02 4.5361629839930709e-02  3.6695990553197180e-02 9.8122654977724252e-02 4.2381583596708905e-02  3.5997747785909612e-02 1.0325131957090501e-01 4.5448710366274798e-02  3.7784457217304078e-02 1.0236726331932565e-01 4.6000137284467335e-02  3.5421810320362776e-02 9.8468014506810420e-02 3.9377698133929134e-02  3.4609066632322431e-02 1.0382717452363563e-01 4.2889809749932256e-02  3.6402866065483742e-02 1.0271763052330851e-01 4.4192920664513115e-02  3.4131946257344975e-02 9.8539957677843404e-02 3.6316760143803056e-02  3.3202847676883890e-02 1.0407562650505714e-01 4.0241576811160563e-02  3.5006274788831608e-02 1.0277857999108518e-01 4.2273266895159145e-02  3.2802752907262096e-02 9.8384317279324243e-02 3.3168762665283132e-02  3.1728958657336985e-02 1.0407306387394299e-01 3.7463195068959336e-02  3.3550156783087398e-02 1.0260201376761598e-01 4.0238172776900866e-02  3.1414702654023519e-02 9.8034426205744429e-02 2.9918614517546859e-02  3.0153965510717359e-02 1.0388143837084833e-01 3.4530624270421292e-02  3.2001290213200459e-02 1.0223665602588092e-01 3.8094625918429985e-02  2.9945690319693290e-02 9.7494672995364184e-02 2.6564168426590075e-02  2.8453416936310143e-02 1.0354558843462448e-01 3.1448128716207009e-02  3.0342357872836893e-02 1.0177284788355490e-01 3.5882315742519530e-02  3.8351580623344948e-02 1.0862498670382648e-01 5.3029505673769038e-02  3.6718359907174952e-02 1.1166555710396193e-01 5.4129422147636365e-02  3.6855337697735989e-02 1.0706710181888007e-01 5.0771594064333195e-02  3.5409331943207015e-02 1.0835962906285325e-01 4.8914152562865978e-02  3.5196682785500581e-02 1.1313236656142621e-01 5.3400549768966209e-02  3.6831912058395797e-02 1.0965121666433758e-01 5.2532724456757982e-02  3.3992547717812668e-02 1.0910072416962624e-01 4.6996879862733716e-02  3.3952859113892848e-02 1.1398378187559136e-01 5.2411959685018245e-02  3.5415239843131344e-02 1.1014451564360223e-01 5.1863208912709714e-02  3.2530874095487640e-02 1.0946377582633465e-01 4.4920801605015430e-02  3.2567845688174300e-02 1.1441163636522637e-01 5.1199747986881407e-02  3.3934224757723182e-02 1.1025382020362633e-01 5.0988863708248580e-02  3.0946313412395992e-02 1.0956448989612620e-01 4.2652452263598192e-02  3.0995440697706135e-02 1.1455815263604391e-01 4.9725216803570581e-02  3.2320610486625129e-02 1.1010201720809200e-01 4.9881465268822263e-02  2.9198280272374057e-02 1.0948864949740685e-01 4.0166052095254076e-02  2.9196193882961668e-02 1.1453919085507257e-01 4.7926847709367566e-02  3.0504667555734735e-02 1.0977500540218221e-01 4.8511372986700815e-02  2.7266281601968614e-02 1.0932961437931445e-01 3.7447613168366853e-02  2.7139803037815421e-02 1.1445684261102174e-01 4.5692094649657143e-02  2.8430943690492524e-02 1.0935479502615500e-01 4.6834620290989788e-02  3.8045034832706014e-02 1.1215028944428210e-01 5.5653949569565646e-02  3.9050819372792520e-02 1.0932709413039129e-01 5.5457273739440337e-02  3.7937553059556851e-02 1.1268995682533170e-01 5.6600881084019325e-02  3.7359924925236564e-02 1.0956016675860165e-01 5.6872747305887379e-02  3.6402671259746416e-02 1.1300342885548262e-01 5.6238275544482574e-02  3.6291732882320071e-02 1.1295447619831198e-01 5.8355835934514641e-02  3.5904191108302216e-02 1.0940499486035993e-01 5.7848901021431351e-02  3.5080225972799958e-02 1.1336400428208129e-01 5.6398424238229369e-02  3.4881547072567819e-02 1.1283587662017028e-01 5.9567704257285366e-02  3.4475608040071999e-02 1.0892456992019385e-01 5.8464196578931905e-02  3.3695623260469126e-02 1.1333535814062339e-01 5.6253706619323877e-02  3.3556342634952337e-02 1.1239656547647481e-01 6.0328962035322439e-02  3.2870267778271373e-02 1.0817652563565329e-01 5.8817842800477228e-02  3.2107260108370589e-02 1.1301394021071520e-01 5.5822598548147917e-02  3.2011922096509528e-02 1.1165429396833793e-01 6.0815960695127978e-02  3.1002915705606354e-02 1.0720167822213773e-01 5.8927525088116120e-02  3.0245827463009294e-02 1.1248124306714335e-01 5.5079591794201688e-02  2.8757736268747152e-02 1.0600727706625034e-01 5.8802110142419005e-02  4.1729663711200675e-02 8.5240929187128778e-02 4.9093869491298028e-02  4.0138623928585575e-02 8.3175531180359724e-02 5.1198625332747369e-02  3.8667426117986015e-02 8.1066305426454391e-02 5.3105746890411018e-02  3.7274324293040104e-02 7.8878350722150950e-02 5.4891067031034517e-02  3.5885588162310009e-02 7.6624909192852655e-02 5.6577841480211846e-02  3.4385095276865736e-02 7.4324113130728078e-02 5.8223414261474163e-02  3.2692318745045967e-02 7.1968095892625386e-02 5.9891579359221472e-02  3.7871613058620968e-02 6.8679833491273420e-02 4.1147456244382527e-02  3.7188787091203074e-02 7.7184172987986313e-02 4.4481753331953248e-02  3.9165746968967255e-02 7.8985603412075278e-02 4.5986137475032961e-02  3.7716240283588512e-02 7.5870906313692102e-02 4.8524517954986079e-02  3.5870879587187307e-02 7.3731949034942956e-02 4.7335631614360919e-02  3.6599937379242040e-02 6.4867158184661780e-02 4.3459464259974642e-02  3.6288542447848543e-02 7.2775575899499595e-02 5.0926957607429241e-02  3.4533786644144339e-02 7.0327345332852717e-02 5.0035871383563177e-02  3.5394776194856932e-02 6.1131649755892324e-02 4.5687923859337065e-02  3.4939846225294648e-02 6.9674655034060312e-02 5.3205174805338706e-02  3.3280958680400534e-02 6.6941495041944021e-02 5.2599037895916863e-02  3.4298994119905557e-02 5.7460651139061687e-02 4.7864998963169460e-02  3.3712023775430498e-02 6.6561644080217280e-02 5.5355791498142466e-02  3.2165374334562243e-02 6.3551722223297691e-02 5.5031292598847766e-02  3.3373257778333158e-02 5.3841660568706706e-02 5.0006699587266924e-02  3.2558889333709387e-02 6.3387717966005841e-02 5.7463960442312847e-02  3.1057430875034903e-02 6.0068611868568940e-02 5.7491513237805526e-02  3.2732700040284744e-02 5.0204756817908321e-02 5.2112100541406386e-02  3.1328522713286434e-02 5.9956808824441231e-02 5.9780019542918859e-02  3.0088515526644877e-02 5.6121779476108760e-02 6.0256913499646715e-02  3.2341502303538598e-02 4.6169437586465412e-02 5.4525428811845342e-02  4.5175224580938679e-02 8.5227508831227733e-02 4.6251022329201114e-02  4.4511412704498314e-02 9.0279999699072563e-02 4.6567568786319187e-02  4.5214231720175455e-02 9.0440344724593280e-02 4.5351511597206413e-02  4.4256115234839632e-02 8.9553757995401453e-02 4.6427425065821752e-02  4.3365672108755804e-02 8.9282613806649688e-02 4.7795966085526595e-02  4.4078211681622528e-02 8.3693119929463072e-02 4.7762618142904764e-02  4.3040703960652849e-02 8.2268140170714057e-02 4.8997403851746897e-02  4.2254106253442461e-02 8.8257578025381547e-02 4.8732401025417336e-02  4.3303155456476512e-02 8.8611845938823389e-02 4.7213626604045940e-02  4.2032696840431316e-02 8.0872060799078882e-02 5.0119658131205190e-02  4.1156824731172000e-02 8.7185713673243986e-02 4.9516850291743977e-02  4.2349015670526798e-02 8.7598290755525623e-02 4.7843838693108084e-02  4.1024150126302922e-02 7.9444443580242288e-02 5.1232152562433769e-02  4.0046840690714916e-02 8.6029122682355394e-02 5.0258524373075542e-02  4.1385487256924293e-02 8.6480759280370578e-02 4.8435273703071741e-02  3.9994424034250124e-02 7.7942233779524431e-02 5.2428379909355970e-02  3.8904813615482009e-02 8.4758797219032816e-02 5.1050861351276705e-02  4.0402685804833020e-02 8.5233296934622380e-02 4.9080005711540961e-02  3.8924025602614640e-02 7.6330936988830894e-02 5.3793418923657813e-02  3.7715717333298010e-02 8.3357494806934926e-02 5.1984838131876647e-02  3.9397887245096345e-02 8.3831803712796082e-02 4.9855017473867835e-02  3.6419322575888591e-02 1.1511126887360289e-01 5.6288136631196924e-02  3.4879770903580076e-02 1.1639000541788928e-01 5.6490579669457364e-02  3.3699940044479931e-02 1.1709685783876271e-01 5.6169770094829749e-02  3.2420894115338231e-02 1.1740926647235063e-01 5.5533681534301237e-02  3.8819888938922881e-02 8.7535129852115937e-02 4.8827817054541374e-02  3.7289636246638551e-02 8.4993231347467071e-02 5.1725126371429300e-02  3.5779853370476900e-02 8.2379690749992768e-02 5.4345262357457673e-02  3.4319181773783333e-02 7.9687310776202183e-02 5.6751732849826222e-02  3.2923342719466536e-02 7.6916307894117394e-02 5.8974244824707485e-02  3.1434802391317213e-02 7.4024237674804177e-02 6.1147026655373110e-02  2.9698679335372069e-02 7.0887435122700071e-02 6.3349940786525283e-02  4.6028510162147797e-02 8.6515843542260537e-02 4.5123637545926312e-02  4.6128772397246366e-02 9.0682109794736052e-02 4.3968210875249408e-02  4.5393523236746100e-02 8.9956546810944171e-02 4.4870949755336405e-02  4.5139069747643118e-02 8.5198191122068057e-02 4.6498951387333384e-02  4.4271677377516604e-02 8.3951163971349843e-02 4.7585035082824655e-02  4.4629373216702566e-02 8.9129057892256544e-02 4.5470661563168716e-02  4.3415122619584794e-02 8.2688217738831685e-02 4.8532587711575759e-02  4.3859416801952648e-02 8.8180814766447818e-02 4.5912906757817395e-02  4.2559640718376944e-02 8.1359709860588339e-02 4.9466599599376236e-02  4.3087925593542763e-02 8.7104850321966826e-02 4.6311477951613840e-02  4.1696074891009155e-02 7.9927989436000477e-02 5.0488775536994331e-02  4.2324838757410825e-02 8.5870538448402534e-02 4.6760386999298478e-02  4.0821987502465497e-02 7.8378003338382712e-02 5.1709978796817706e-02  4.1578805376423091e-02 8.4420605849701139e-02 4.7326917097973473e-02  4.4297772414078465e-02 9.1571579312295287e-02 4.0398847181122244e-02  4.3808704910343221e-02 9.1790688226658271e-02 3.8754867441634859e-02  4.3213658566215833e-02 9.1684543582401926e-02 3.7036623884949903e-02  4.2566893751551607e-02 9.1313225982383603e-02 3.5257969675915185e-02  4.1899285399453277e-02 9.0711513719426082e-02 3.3430033334305463e-02  4.1233746215838300e-02 8.9899399748267356e-02 3.1560372370546735e-02  4.0583261663415880e-02 8.8867309480122059e-02 2.9635202227191321e-02  4.3783304765507347e-02 5.8448866562868899e-02 4.1360277696582501e-02  4.3078303488061409e-02 6.4004117652815301e-02 4.2825015037150437e-02  4.4370452668719376e-02 6.5572198327988052e-02 4.3866230346813917e-02  4.3410189419172289e-02 6.2768639528171660e-02 4.4966918369911138e-02  4.1958185703792027e-02 6.0949147790979520e-02 4.4058195656487248e-02  4.2779312183309749e-02 5.5304851684163256e-02 4.2313729003671356e-02  4.0950360230092499e-02 5.7887802325376478e-02 4.5321891105701298e-02  4.1976552220102312e-02 5.2234103699379093e-02 4.3300366514102330e-02  4.2563731559479075e-02 6.0010688642645804e-02 4.6116519861998204e-02  4.0115920354903682e-02 5.4885023865259536e-02 4.6599450537271658e-02  4.1866977188305163e-02 5.7301602260681359e-02 4.7306785766057569e-02  4.2522171107173892e-02 7.0684706125294150e-02 4.4703108486132979e-02  4.1272443917556717e-02 6.7822807759115894e-02 4.6263143053170599e-02  4.0085864438062772e-02 6.4942241986622670e-02 4.7805782853908255e-02  3.9006358057