<?xml version="1.0"?>
<VTKFile type="UnstructuredGrid"  version="0.1"  >
<UnstructuredGrid>
<Piece  NumberOfPoints="977" NumberOfCells="4163">
<Points>
<DataArray  type="Float64"  NumberOfComponents="3"  format="ascii">6.949025300832863 2.148934704219669 4.009460308013538  6.953242297392698 2.230818648089161 4.079134276677272  6.840548603505403 2.195966651224284 4.078369188363792  6.853797107646364 2.144614141909101 4.13616913794137  6.968440595340857 2.181696133461791 4.138666373911964  6.962459193140765 2.095847160035122 4.063408912862005  6.975892824984577 2.042740538375712 4.1173295978896  6.983647911386505 2.1325566036195 4.198187324176396  6.86704166919098 2.093251487005111 4.193967545714151  6.989328669135735 1.989622626886168 4.171225446339082  6.998859700580828 2.083404744363202 4.25769162696457  6.88028558151756 2.041878787024033 4.251748328678534  7.014076114083156 2.03423709849119 4.317173412077135  7.002766635179873 1.936492792709076 4.22509318562829  6.893533462701373 1.990491779094387 4.309503623882001  7.029295865758338 1.985046233184347 4.376629330066704  7.016205609519839 1.883349412916085 4.278928483159283  6.906787486342266 1.939083646017428 4.367228829953139  7.029636053218448 1.830191710544305 4.332734792544878  7.044506450149917 1.935824541590048 4.436068143588789  6.920050105230691 1.887652559784698 4.424927471909819  6.842992358081182 2.101419571757881 3.983187784407237  6.855767069224882 2.046652543483451 4.034164784633528  6.868544650698927 1.991864473932881 4.085115212216051  6.881324401233124 1.937065867891651 4.136042879022313  6.894107054609428 1.882255869079407 4.186942263584239  6.906892961973583 1.827430614749864 4.237808195199427  6.919674054496015 1.772582796932619 4.288637030372534  7.464330603493565 1.785464346783971 3.385845072962563  7.362240339257648 1.794416855658056 3.428854482778681  7.406003365543847 1.729280910068973 3.306496600630532  7.414065618846602 1.675396735038247 3.337092602591421  7.37106182848206 1.739464873113291 3.461785523724749  7.473086965112691 1.731585941514888 3.417804508024191  7.379890604035181 1.684501055792345 3.494663056475758  7.481850642618825 1.677699983233033 3.449714169594537  7.41503301311094 1.46464922449934 3.625862111066185  7.516690005884177 1.46215256038869 3.577054862587136  7.45416070321171 1.405996381704936 3.48945987569124  7.406302370750592 1.519618720729517 3.593095396687962  7.28403969384003 1.742828722388946 3.361579688434735  7.292599391869124 1.688000600700711 3.393071532322236  7.33530382412312 1.41384075601661 3.549917451881448  7.326816638643834 1.468676139512049 3.518587649578765  8.044671908195705 1.867658284985938 3.808242552895867  7.939955832204015 1.8834091778955 3.866173104882109  7.984565297046545 1.796511144125564 3.726132780655822  7.99424442610298 1.746386360854811 3.762912378466916  7.951080551058793 1.83459866216173 3.90893732072967  8.05375323602364 1.819572938638051 3.849065379818211  8.003784013314453 1.696266267611691 3.799654934902754  7.962045473223767 1.785782814477189 3.951671723364677  6.974422049318843 2.311847365581785 4.138837512747422  6.861931626456389 2.303505451026112 4.161317445545106  6.874893605471212 2.259532518812024 4.227848805036245  6.989933922203209 2.266194648489034 4.203181134517604  6.887830605280613 2.215551823896556 4.294386918682208  7.005447117551583 2.220529883223086 4.267522939638055  6.900761877239828 2.171560835828382 4.360909867773421  7.020962131704501 2.174854850874634 4.331851263240247  6.913701777363236 2.127551843494108 4.427409047761855  7.036483138416687 2.129163024216585 4.396159052618339  6.926660607186028 2.083516137628316 4.493881239585398  7.052009879637695 2.083446307984471 4.460444946317564  6.93964743316061 2.039444363060093 4.560327837488043  7.067517127657468 2.037684754994776 4.524701684151787  7.742082267964967 1.917215448008957 3.518468773769284  7.636034779419287 1.931083200563851 3.56654747501805  7.665953029902002 1.852861716919157 3.442728222964846  7.675030094082932 1.800129600447671 3.476292238313418  7.64586754498023 1.877634803100795 3.603504707081264  7.751492987871456 1.865212926372606 3.554052781845039  7.684127545483059 1.747405003417761 3.509811960551261  7.655733614963444 1.824188977875972 3.640419580473355  7.760939205064258 1.813221458582301 3.589594963325337  7.693217170877008 1.694690348542483 3.543295943786206  7.665599400010707 1.770748197618117 3.677297455831034  7.770384081678187 1.761240469857994 3.625100593060615  7.702276343657399 1.641982251024489 3.576748170453147  7.675437802602953 1.717309860962769 3.714142738604407  7.779797511570593 1.709264968851375 3.660573520692325  7.711283265512547 1.589273679056479 3.610169956258809  7.685221410192434 1.663866615091115 3.750958821035821  7.789148066709857 1.657284814869401 3.696016632697388  7.720219050426297 1.536549546889653 3.643563844421366  7.694918120039408 1.610403296444545 3.787747297520468  7.798390908334775 1.6052879625209 3.731432411598961  7.94551889811093 1.997170204060221 3.57861109564214  7.895116652487554 2.078780127099489 3.694657388924841  7.840442537412945 2.009737045548689 3.625250799591033  7.850433141928551 1.958681250465602 3.664296351939608  7.906281482466446 2.029912853331896 3.737615666823526  7.955251356233482 1.946971708984285 3.615561916170724  7.860475247253741 1.907649198852249 3.703291266546357  7.917513491642423 1.981065132997495 3.7805166090582  7.965034534938471 1.896800598745926 3.652460311712574  7.870516378774208 1.856633794852889 3.742241167176963  7.928751620504087 1.932231233034682 3.823367173824131  7.97481661125133 1.84664852413077 3.689315963374016  7.880520547899497 1.805629673890904 3.781152246484713  7.890447906881499 1.75463236031874 3.820027440186157  7.900251942284462 1.703625398145725 3.858867387009232  7.748039767906868 2.035479965583437 3.677037336911431  7.758033839424993 1.98429079769034 3.71909704307313  7.768066247871623 1.933110910835276 3.76111428103659  7.77810121302026 1.881937561365961 3.803089704027087  7.788102942425678 1.830766307987824 3.845029035586196  7.798036590326902 1.779587050475569 3.886938994758258  7.807870815432105 1.728387445538302 3.928824803711649  7.686916804285789 2.129964433137649 3.799462359446247  7.550445519329314 2.077109004268988 3.774878146956058  7.647583121758853 2.057936230471978 3.727687679096481  7.658203149323453 2.006027653829419 3.77210058849575  7.562504544736325 2.024856389312909 3.821388351384929  7.698333319531908 2.081358707112964 3.849206249880934  7.668859460050929 1.954119399719053 3.816465264624357  7.574607389939469 1.97259703899786 3.867845753109961  7.709789754609751 2.032754517218994 3.898897439611975  7.679518070777594 1.902211753787861 3.860788518465631  7.586715808499137 1.920334329063835 3.914262340116348  7.721250097088531 1.984149816350979 3.948541714347077  7.690147941979085 1.850301177341688 3.905076821599753  7.598801016640519 1.868066887192658 3.960644349339601  7.732677634166936 1.935541670170941 3.998147946055178  7.700717863536938 1.798380427998504 3.949337809279529  7.61083310386419 1.815789498955642 4.006998579748131  7.744034978089638 1.886926127951736 4.047723614809275  7.71119559409227 1.746439996323771 3.993575842617213  7.622766027780889 1.763493234403903 4.053331033045906  7.75529167992393 1.838300595247458 4.097274699153575  7.817539954512595 1.87936954905731 3.443121160248075  7.749426576419842 1.820953171806828 3.366078626498906  7.758149272729834 1.76929169736686 3.397310960882014  7.826840201782471 1.828187524276756 3.476354250119089  7.76689661469805 1.717643952067591 3.42851202515044  7.836181752244938 1.777027215643632 3.509549632991356  7.775635397713908 1.666008872217703 3.459681997014782  7.845519215157359 1.72588458079914 3.5427092643821  7.784342719121875 1.614381559104311 3.49082329621462  7.854822369568604 1.674753099706066 3.575835699337442  7.792994542119564 1.562753433881526 3.521936167347751  7.864056891104604 1.623626359623453 3.608928120479697  7.801551775091795 1.511106347758652 3.553017380770492  7.873168748595252 1.572488501121442 3.641988531415457  7.557045496458914 1.878659330945939 3.511291875171724  7.566584400664356 1.825042601119275 3.546842591869332  7.576147269605931 1.77142525756093 3.582349313785461  7.585707018961812 1.717811947558596 3.617819352238647  7.59524298294725 1.664199856018943 3.653257739195186  7.604735667133558 1.610579370211089 3.688667338678492  7.614171672172728 1.55694042112861 3.72404716800198  7.785503090052012 2.105514145275134 3.752021029112458  7.796429304382096 2.056519647023861 3.798484725677115  7.807407731361856 2.007533241943816 3.844894708787397  7.818390565240366 1.958554696360964 3.891254721310311  7.829336072686844 1.909579785600219 3.937572815890502  7.840201988000611 1.860602458595126 3.983858332803808  7.850952796628427 1.811606872343928 4.030121606751155  7.581747488311321 2.15673203039996 3.8467537865818  7.594501520067229 2.108630960862225 3.899610374728931  7.607299315668691 2.060523745140935 3.952416161784603  7.620105804888533 2.012408468313912 4.005179602428227  7.632887315496617 1.964284019762699 4.057908835423797  7.645610720888695 1.916144902268631 4.11061256142823  7.658239061010598 1.867989495722123 4.16330356512832  6.747403369618056 2.231719763465835 4.125912884635836  6.757621306129385 2.18409583479949 4.188795932022477  6.767796578393113 2.136465692750692 4.251686083489747  6.777960373699574 2.08882387181601 4.314564225261575  6.788131033022895 2.041164411115238 4.377417586182595  6.798323450539172 1.993479841210207 4.440241154979073  6.808557416967874 1.945767766989011 4.503036954281829  7.385211990638379 2.20940288976362 3.946381064226127  7.252211741336693 2.14270653200757 3.920745045461095  7.354530629732052 2.124468936645216 3.877529221480833  7.368170309584267 2.072773230026579 3.929449227936057  7.26664373255903 2.090333293999494 3.973376599829871  7.401513946700385 2.160035115563812 4.00218305547591  7.381844632788281 2.021060240468727 3.981323176007167  7.281
[...]
<PointData  Vectors="f_16"> 
<DataArray  type="Float64"  Name="f_16"  NumberOfComponents="3" format="ascii">-4.8858651467163544e-04 -3.4766562944151022e-02 7.3975183028294261e-03  -1.4593769050907208e-03 -2.8049890433360800e-02 6.3359649635060973e-03  -6.8103419642395302e-04 -2.8874583041772324e-02 7.2118610983851836e-03  -6.9746374932708427e-04 -2.3996817273765712e-02 7.9622400982541797e-03  -1.2742428453010430e-03 -2.3137479488211703e-02 6.9529199118227277e-03  -4.4650903201607294e-04 -2.9612255168273663e-02 8.7595331536486753e-03  -5.0329767609027859e-04 -2.5105950630466448e-02 1.0410873826500591e-02  -1.6840518670784364e-03 -1.9427713069981558e-02 7.8287794658723694e-03  -1.0256588223852149e-03 -2.0090469839522514e-02 9.0262778210843143e-03  -9.2913630871355353e-04 -2.1453232561011819e-02 1.2381654924106004e-02  -2.1265531009030314e-03 -1.6694762103721974e-02 9.0987644414006179e-03  -1.5207853820433934e-03 -1.7160812867629001e-02 1.0489957375431800e-02  -2.1355697123205540e-03 -1.4580069256990293e-02 1.0777624574505750e-02  -1.4283178804144377e-03 -1.8426057117664305e-02 1.4755946127553330e-02  -1.6013171897123794e-03 -1.4925410766643830e-02 1.2366695158290513e-02  -1.7800493494143702e-03 -1.2987606742669756e-02 1.2778335106959990e-02  -1.6656152714444174e-03 -1.5972617681309927e-02 1.7496304209137906e-02  -1.3632235436185078e-03 -1.3268344125699973e-02 1.4586106175302642e-02  -1.6130445460978079e-03 -1.4090612047602095e-02 2.0546363746500828e-02  -1.3418059991615640e-03 -1.1802509998331389e-02 1.4980254486963473e-02  -9.9809775921077398e-04 -1.2065398678037530e-02 1.7019021240480152e-02  4.3037549198497477e-04 -3.8218701009522044e-02 8.6504866569012909e-03  2.1431879323719478e-04 -3.3053389057887406e-02 1.0379825043912438e-02  1.9219339151821366e-04 -2.8359363742623791e-02 1.2360302415496250e-02  -6.1858926141386417e-05 -2.4250905783873820e-02 1.4669795349638279e-02  -6.5554783689729292e-04 -2.0789765564604022e-02 1.7357409326948556e-02  -1.1578856765121636e-03 -1.7934357365772518e-02 2.0416035102340076e-02  -1.4202416841290820e-03 -1.5671839132599060e-02 2.3877745542032130e-02  5.6165098733073227e-04 -9.8619609933767324e-02 2.8161648509282114e-02  1.2591178615320323e-03 -9.5463733615398921e-02 2.7090290079246380e-02  1.3526410319808072e-03 -1.0484655001609057e-01 3.2193201368671466e-02  1.6231646481397308e-03 -1.0279076155105467e-01 3.5730886829899333e-02  1.4514591036430874e-03 -9.2311073564825874e-02 3.1369868165215128e-02  8.1444318047827250e-04 -9.5811481060442114e-02 3.2217713768645274e-02  1.6212517049121265e-03 -8.9152881878289222e-02 3.5066744281307696e-02  1.0419678988480994e-03 -9.2932105280181462e-02 3.5701553173197557e-02  1.7629567425752227e-03 -7.3910456931404009e-02 4.9031461537226151e-02  1.3504643162765958e-03 -7.8435716423710097e-02 4.8468384701066493e-02  2.0077789594371456e-03 -8.7523237945543314e-02 4.9208309348511191e-02  1.8453578453542403e-03 -7.8349173753476553e-02 4.5274921166308470e-02  2.1924719196041009e-03 -1.0145104048887517e-01 3.0819238070483521e-02  2.3892874065825648e-03 -9.8924046645699454e-02 3.4744571220051521e-02  2.4747687498245419e-03 -8.2246998496560753e-02 5.0232467084673500e-02  2.6100045622025302e-03 -8.6458349490985617e-02 4.7031273736076858e-02  -6.3583572361907877e-03 -4.6526157684968823e-02 2.1230757765631238e-02  -5.6013021290302369e-03 -4.1488307667351274e-02 2.0040023419223962e-02  -4.6871613865175077e-03 -5.7400900168753370e-02 2.7191099744654765e-02  -4.0976611385675739e-03 -5.3010979909926904e-02 3.0969917009999522e-02  -5.0415230022241853e-03 -3.7076011455745163e-02 2.3584500377570813e-02  -5.6610296633372833e-03 -4.1976764212381681e-02 2.4816476822671067e-02  -3.5492994250391984e-03 -4.8327698855177889e-02 3.5172601640623580e-02  -4.4073366231209277e-03 -3.2591403463348573e-02 2.7554437408626151e-02  -2.0363387649843358e-03 -2.2478542790649148e-02 5.8727330639321996e-03  -1.3457053539010870e-03 -2.1386265383785869e-02 6.7253926565877409e-03  -1.5771748971675139e-03 -1.7407534301650616e-02 6.7282245394707603e-03  -2.1763076412976549e-03 -1.8397027732998960e-02 5.9743639151935085e-03  -2.1201373681216124e-03 -1.5039233326918994e-02 6.9952396077100415e-03  -2.7136198244932567e-03 -1.5831348385258459e-02 6.3821212809017664e-03  -1.9501676545301380e-03 -1.3463277639676004e-02 7.7387039122382333e-03  -2.7250287004879840e-03 -1.4051192345226291e-02 7.1246275969470835e-03  -1.3730168719403636e-03 -1.2373769118248652e-02 8.8541792669382530e-03  -2.2026291133966027e-03 -1.2732002012833607e-02 8.2917763407076104e-03  -8.5890214898493044e-04 -1.1492969183511472e-02 1.0249453276945460e-02  -1.6553031673314552e-03 -1.1662891732863690e-02 9.7555392427736351e-03  -3.0258365774192195e-04 -1.0980266741882232e-02 1.1672955381310491e-02  -1.0171435551409747e-03 -1.0974564939359770e-02 1.1325396908703980e-02  -3.4034133308773616e-03 -8.3758927529086910e-02 1.8497466746115986e-02  -2.5384949418525960e-03 -7.9426745761035977e-02 1.7285714385312231e-02  -1.8393431483762419e-03 -9.2152471197794961e-02 2.3439440381114368e-02  -1.4856817274714390e-03 -8.8764605246938355e-02 2.7683389161498356e-02  -2.2491088798641421e-03 -7.5024789042833884e-02 2.1614072421671404e-02  -3.0178994022369695e-03 -7.9673562961336430e-02 2.2799847749538537e-02  -1.1293304530990108e-03 -8.5411938400580381e-02 3.1383236865776189e-02  -1.9303515152433569e-03 -7.0954018486647077e-02 2.5476748973598310e-02  -2.6201217173190605e-03 -7.5805641109294372e-02 2.6604371624581364e-02  -8.0001528908596172e-04 -8.1946384585857193e-02 3.4790154593807972e-02  -1.6299089295167852e-03 -6.6911087105090222e-02 2.9217088818408277e-02  -2.2413709735379411e-03 -7.1928422954087079e-02 3.0202415865678477e-02  -5.3050958591680430e-04 -7.8236693455043485e-02 3.8122602385030228e-02  -1.3098598831598931e-03 -6.2747822340642356e-02 3.2970468289046345e-02  -1.8712710336092390e-03 -6.7903670139249556e-02 3.3775225970931223e-02  -3.4400840534452626e-04 -7.4169874015236503e-02 4.1586363196208932e-02  -1.0391715299992634e-03 -5.8373174249895396e-02 3.6920349588729702e-02  -1.5612262700990336e-03 -6.3617307091582337e-02 3.7520858379947508e-02  -2.6409280730083703e-04 -6.9667502139726972e-02 4.5403146509823800e-02  -8.5096118948428732e-04 -5.3672671553848389e-02 4.1284273516415691e-02  -1.3490029726359945e-03 -5.8943104396097221e-02 4.1611286466055046e-02  -6.9450267211341489e-03 -7.4466094070263125e-02 1.2333202889948665e-02  -7.6545512964000069e-03 -6.0684104522808237e-02 7.2365187329976573e-03  -5.8698631949090935e-03 -7.0215829323021256e-02 1.1720412211516037e-02  -5.4263599330105165e-03 -6.5399826206397782e-02 1.5585981892422522e-02  -7.1896569086539091e-03 -5.5476038935302348e-02 1.0391219203464299e-02  -6.3676075156835271e-03 -6.9933047845415972e-02 1.6378942638530243e-02  -4.9416727939382322e-03 -6.0997795812538336e-02 1.9156581586291944e-02  -6.7086881655660235e-03 -5.0730299396049811e-02 1.3462900891034772e-02  -5.7799427090618584e-03 -6.5757242402003771e-02 2.0023748244574018e-02  -4.4962922417563960e-03 -5.6671512835662415e-02 2.2731526397777872e-02  -6.1748491443175766e-03 -4.6059646189807291e-02 1.6674337494797194e-02  -5.2709762816983479e-03 -6.1624777555882436e-02 2.3595855684463263e-02  -3.9779692691428847e-03 -5.2320069064999267e-02 2.6366763545598249e-02  -3.4656117799577424e-03 -4.7870990649691823e-02 3.0202731842993668e-02  -2.9875561232758120e-03 -4.3224588906424985e-02 3.4490428353372717e-02  -5.1756937666573872e-03 -6.4984899043905087e-02 1.0248079387074543e-02  -4.8211807300084543e-03 -5.9816210441064471e-02 1.3808007546369669e-02  -4.4222765744997301e-03 -5.5147658992173290e-02 1.7142579052202820e-02  -3.9835259156004721e-03 -5.0563508279161069e-02 2.0588320194379672e-02  -3.5056661194034994e-03 -4.6031336603817516e-02 2.4170371622459927e-02  -3.0666963294754316e-03 -4.1586304523192223e-02 2.7933576859822919e-02  -2.6631437432232609e-03 -3.7063780173630392e-02 3.2141278819015420e-02  -5.7455335385366195e-03 -5.0110585446217000e-02 5.6101678207175374e-03  -3.4974024455664888e-03 -5.5061035431558866e-02 8.3877915481282012e-03  -4.3412403457897628e-03 -5.9819049663100747e-02 9.1554786883459669e-03  -4.0790290198500796e-03 -5.4503352415170139e-02 1.2398619994977069e-02  -3.3658112683819068e-03 -4.9682017298487924e-02 1.1288792582392952e-02  -5.3833121333274614e-03 -4.4592591523870240e-02 7.8948419148548200e-03  -3.6955314209942652e-03 -4.9675754704303986e-02 1.5535933092732438e-02  -2.9235175079327944e-03 -4.4663956608872436e-02 1.4190319746411427e-02  -4.9103869212742254e-03 -3.9453126430697906e-02 1.0343657349648152e-02  -3.2788415832172148e-03 -4.4981340653596338e-02 1.8858363418031775e-02  -2.5294786155453438e-03 -3.9896425146099868e-02 1.7325250742355493e-02  -4.5349103372918313e-03 -3.4681488486469098e-02 1.3041188233630076e-02  -2.8930956719504944e-03 -4.0445540360475186e-02 2.2369581807310902e-02  -2.2888544941090717e-03 -3.5463583710277843e-02 2.0706678728942454e-02  -4.3588778197971925e-03 -3.0365658165752863e-02 1.6001787577581857e-02  -2.5771684603467888e-03 -3.6125106567152010e-02 2.6092040371694089e-02  -2.2107214617127337e-03 -3.1382335831906985e-02 2.4348518516220111e-02  -4.2802176393320597e-03 -2.6393241181382806e-02 1.9239637767393229e-02  -2.2343330788551449e-03 -3.1808756955567924e-02 3.0245815967028706e-02  -1.9964442684515167e-03 -2.7342052645691860e-02 2.8422363094986469e-02  -3.8964920550638568e-03 -2.2415301099586452e-02 2.2860816327706805e-02  -3.7047940980352700e-03 -9.0862984702102648e-02 2.1578059727906999e-02  -2.3470521554397336e-03 -9.8403120147262393e-02 2.6098921612182174e-02  -1.8875282146691027e-03 -9.5735113989264597e-02 3.0014354354591280e-02  -3.2196284483613775e-03 -8.7422062245765042e-02 2.5759464761740177e-02  -1.4479395099721197e-03 -9.2948804863852846e-02 3.3372552322671029e-02  -2.7467321975692357e-03 -8.4034110975383269e-02 2.9397717936966390e-02  -1.0483092990851081e-03 -8.9967091115952705e-02 3.6398363606403743e-02  -2.2972460723193191e-03 -8.0542436464066197e-02 3.2756415767354718e-02  -7.2093258626794551e-04 -8.6689646329625197e-02 3.9285169762772985e-02  -1.9020882511242999e-03 -7.6820641681316360e-02 3.6032987939721997e-02  -4.9955648526500999e-04 -8.3005127615852728e-02 4.2219294222338236e-02  -1.5901579350538278e-03 -7.2747828799631639e-02 3.9429413629196185e-02  -4.1969968217755972e-04 -7.8772295044396354e-02 4.5414602169943238e-02  -1.3934006261222133e-03 -6.8239179608956757e-02 4.3160424038208946e-02  -1.1335859220128453e-03 -8.6163116330137721e-02 2.1142957373684351e-02  -8.9202042412751261e-04 -8.2182592985349717e-02 2.5519096197788704e-02  -6.2906338771944045e-04 -7.8383669796473432e-02 2.9375660953146900e-02  -3.8822176377605440e-04 -7.4562358603431619e-02 3.3023793312604410e-02  -1.7493594270091091e-04 -7.0571062010950467e-02 3.6644375444366620e-02  -1.9596539588597189e-05 -6.6289515341205613e-02 4.0443081007608433e-02  5.2611708699230867e-05 -6.1604303716919356e-02 4.4631612708461922e-02  -6.6406214452551151e-03 -5.4858126971768791e-02 6.3331867229194858e-03  -6.2714766195258705e-03 -4.9442985314387435e-02 9.0360034326944453e-03  -5.8175660414740904e-03 -4.4535598005057166e-02 1.1794251565359069e-02  -5.3363698617110494e-03 -3.9775949446581416e-02 1.4782240699229886e-02  -4.9077263435270534e-03 -3.5273396626233959e-02 1.7975159728516207e-02  -4.5607141461087800e-03 -3.1057910876033261e-02 2.1389212982574984e-02  -4.0321326298913438e-03 -2.6822755373025375e-02 2.5208421904571482e-02  -4.9891207232414586e-03 -4.5617886188943163e-02 5.0753143878973324e-03  -4.4461388883183465e-03 -3.9888020308154595e-02 6.9081114841308463e-03  -3.9497619324783120e-03 -3.4604774906738592e-02 8.9820792750445154e-03  -3.7957327010669909e-03 -2.9995513176786424e-02 1.1358627281454810e-02  -3.9495737362866901e-03 -2.6014372419825741e-02 1.4036616852682378e-02  -4.0825797632114873e-03 -2.2379079609762081e-02 1.7038401616208083e-02  -3.8159615382417941e-03 -1.8770565624309721e-02 2.0427706956473841e-02  -5.7072980371409795e-04 -2.4858208417505700e-02 7.5124177662055256e-03  -6.9495472183340578e-04 -2.0254836093463728e-02 7.8610679117945004e-03  -1.1752158258022893e-03 -1.6909357789911837e-02 8.4671776779400940e-03  -1.4100656962353329e-03 -1.4720826517397031e-02 9.4360109785562325e-03  -1.0800651371721860e-03 -1.3180762429546602e-02 1.0882398779033523e-02  -6.9785423654938937e-04 -1.1950594226495749e-02 1.2633682339667317e-02  -2.9859835349746878e-04 -1.1103312447013283e-02 1.4527604447142246e-02  -3.5803298463574496e-03 -3.6433213391118401e-02 4.4191268519000590e-03  -1.8728617165868428e-03 -4.1283144925827894e-02 6.5796959205192372e-03  -2.2901124802251335e-03 -4.4904603028980250e-02 6.9134697848169642e-03  -1.9780072150502315e-03 -3.9186972003131988e-02 8.9931614562374501e-03  -1.3967656144518944e-03 -3.5487880595204351e-02 8.4089067519407517e-03  -2.8875323770217697e-03 -3.0813844639417779e-02 5.6532685799846110e-03  -1.4618299814729804e-03 -3.3912349306924175e-02 1.1245954151373997e-02  -1.0213357025913663e-03 -3.0454658894401576e-02 1.0448297327236919e-02  -2.7621348926013703e-03 -2.6217694509927499e-02 7.1939407808314102e-03  -1.4260699189969158e-03 -2.9466273591996474e-02 1.3803117562327950e-02  -1.1799188106218419e-03 -2.6375499764583688e-02 1.2800883720024749e-02  -3.2373004335307467e-03 -2.2628802754999011e-02 9.0822789997558884e-03  -1.8131281295183778e-03 -2.5748557453134882e-02 1.6710681550410684e-02  -1.7626878175663475e-03 -2.3014703962839587e-02 1.5556276007091032e-02  -3.6805014313576741e-03 -1.9516204168903491e-02 1.1333179276601622e-02  -2.2215469115384077e-03 -2.2359622628889079e-02 1.9940933499141021e-02  -2.1912054368080436e-03 -1.9875073309150993e-02 1.8631714135743896e-02  -3.7138187951301863e-03 -1.6691362824799164e-02 1.3942407577189592e-02  -2.2652883959728889e-03 -1.8998093403305123e-02 2.3589433088403423e-02  -2.2440492262476085e-03 -1.6982144661322952e-02 2.2108210281834934e-02  -3.3121936609612898e-03 -1.4213632302486692e-02 1.6924188517277713e-02  1.8082180790248788e-03 -9.1329178258562987e-02 2.5581539678739468e-02  1.9292232606901232e-03 -8.7765983602845848e-02 2.9992177460845870e-02  2.0407757475696241e-03 -8.4302033519721584e-02 3.3877799338653827e-02  1.8383910314881528e-03 -8.2297710478898195e-02 4.1825280387212879e-02  2.1762112348188249e-03 -7.6944777823064053e-02 4.1107801645953672e-02  2.6545550811259756e-03 -9.0125211183180023e-02 4.4053188020511211e-02  2.1489871159966630e-03 -7.2801343130080048e-02 4.4844053478213568e-02  2.0492978813495626e-03 -6.8213344113186941e-02 4.8923603828026220e-02  -3.0960670573101897e-03 -3.2594686285960371e-02 4.6485953043269882e-03  -2.4243363998784407e-03 -2.7117093634269972e-02 5.5916182531688683e-03  -2.5895602741933749e-03 -2.2976589088322404e-02 6.8928529503541674e-03  -3.2199721839827971e-03 -1.9753710442565506e-02 8.5368263421995386e-03  -3.4797146149242015e-03 -1.6971428551999495e-02 1.0563183851388179e-02  -3.3063546798382968e-03 -1.4638764893282526e-02 1.2933932786874394e-02  -2.7767543505086336e-03 -1.2718704817943930e-02 1.5582201143006263e-02  -1.8642656313181728e-03 -7.4433283061932101e-02 1.5897609941286681e-02  -1.6762857590615454e-03 -6.9690840380830649e-02 2.0053959079633525e-02  -1.4132841828190139e-03 -6.5369482227197462e-02 2.3847301775138888e-02  -1.1390256764464083e-03 -6.1093645020760395e-02 2.7624026722032603e-02  -8.4293040962747927e-04 -5.6753668853712053e-02 3.1458969779032397e-02  -6.0554731075826548e-04 -5.2301257768767269e-02 3.5499444039153782e-02  -4.4494398629726435e-04 -4.7599733880285947e-02 4.0015226633124214e-02  -3.7114669922825930e-03 -1.0793261819300584e-01 3.0927891063166197e-02  -4.2436121615420973e-03 -1.0278667764849025e-01 2.7340269485347121e-02  -2.6642141362716349e-03 -1.0408321382296416e-01 2.9073020992523239e-02  -2.1242090540281723e-03 -1.0204364988959007e-01 3.2402710199855744e-02  -3.5965713231197682e-03 -1.0070071475591713e-01 3.0704082844287099e-02  -3.0642876027280608e-03 -1.0650490746263892e-01 3.3595067594035265e-02  -1.6221524056640019e-03 -9.9757743530190179e-02 3.5228253262402962e-02  -2.9822737350916131e-03 -9.8384589872563558e-02 3.3558625100931709e-02  -2.4519394633596325e-03 -1.0472843341370754e-01 3.5818351864033600e-02  -1.1722128096420120e-03 -9.7184030286151357e-02 3.7723924583427972e-02  -2.4245364312288236e-03 -9.5794046311945658e-02 3.6077732247381575e-02  -1.9027740784652429e-03 -1.0260177249349298e-01 3.7728081434646683e-02  -8.0344792138412936e-04 -9.4257360210765348e-02 4.0041745280431966e-02  -1.9490800914566629e-03 -9.2858630566965875e-02 3.8409995780604660e-02  -1.4403389681968963e-03 -1.0009116813106088e-01 3.9418313688296791e-02  -5.5337036668631680e-04 -9.0886047202914502e-02 4.2320287388003759e-02  -1.5903646777690318e-03 -8.9479469204944817e-02 4.0694537764969271e-02  -1.1008374644864876e-03 -9.7126596037677607e-02 4.0968491790498912e-02  -4.8066213585877955e-04 -8.6944347456024071e-02 4.4690109190131895e-02  -3.9650664574554214e-03 -9.7371439481700003e-02 2.4492363284080713e-02  -3.3983451639951106e-03 -9.4632972262991416e-02 2.8375562199863414e-02  -2.8462731275138843e-03 -9.1794992296522146e-02 3.1703400857174269e-02  -2.3379648398884844e-03 -8.8768797757418014e-02 3.4701958313457446e-02  -1.9017305476510676e-03 -8.5449062611608076e-02 3.7558308744583456e-02  -1.5713361114783452e-03 -8.1722859526171782e-02 4.0451970469595387e-02  -1.3876611225800480e-03 -7.7457570017700927e-02 4.3588573528747517e-02  -4.4707737366474687e-03 -4.1066299744174778e-02 4.4618120325544955e-03  -2.8391570119103548e-03 -4.9394304028803959e-02 7.5554920564155021e-03  -2.6596428963054160e-03 -4.3768662762400989e-02 9.9648159997790271e-03  -3.6516348384488403e-03 -3.5135231595285865e-02 5.9909165886024998e-03  -2.1729095955761533e-03 -3.8588015077591777e-02 1.2523614083843022e-02  -3.2656512051412708e-03 -3.0063639417469420e-02 7.7322682479842465e-03  -1.9102884355508627e-03 -3.3881991744777004e-02 1.5352228458129799e-02  -3.4477889086044311e-03 -2.5943717998497127e-02 9.8094314650787780e-03  -1.9807418008945168e-03 -2.9755322246796976e-02 1.8494239404791349e-02  -3.8728993881589025e-03 -2.2446172905151485e-02 1.2229976014834696e-02  -2.2250085294197360e-03 -2.6073656712120259e-02 2.1944158281345175e-02  -3.9966194066464724e-03 -1.9176908788753604e-02 1.4978082435716749e-02  -2.1311146891642135e-03 -2.2318029540340744e-02 2.5810970861448217e-02  -3.7018341045368564e-03 -1.6127044488241350e-02 1.8130303374305830e-02  2.7922112518302981e-03 -9.6801177344629522e-02 2.8862547649273117e-02  2.9234881207023302e-03 -9.3775554046825485e-02 3.3153184672295812e-02  3.0061580625695659e-03 -9.0726988572993356e-02 3.6861820529528078e-02  2.9525943428986004e-03 -8.0080802609324542e-02 4.7008935089316251e-02  2.8235785736316697e-03 -7.5662017356047745e-02 5.0711895605366306e-02  -2.2884690480660381e-03 -2.6042144911742615e-02 5.3427454228752542e-03  -1.5762146762216718e-03 -3.1626781540011771e-02 6.1332261900590339e-03  -1.2863262477632812e-03 -2.6539032546166616e-02 7.0624879202155089e-03  -2.1586013699865418e-03 -2.1374330159163877e-02 5.7521527953767436e-03  -1.4452100578583422e-03 -2.2334419482841334e-02 8.2944323056432200e-03  -2.6628354457110394e-03 -1.8102032746502267e-02 6.4194994285376658e-03  -2.0915577297577594e-03 -1.9196796602585033e-02 9.8808118338708211e-03  -2.9888088644213075e-03 -1.5721374545869023e-02 7.4749886428751924e-03  -2.3241273846261357e-03 -1.6493612499557758e-02 1.1894250483475645e-02  -2.7602311042105639e-03 -1.3869609341252255e-02 8.9265966523976344e-03  -2.2309416533617702e-03 -1.4364188105738706e-02 1.4175655015282377e-02  -2.2831370709510425e-03 -1.2432547960685703e-02 1.0693895700198913e-02  -1.8328814043761734e-03 -1.2777621735059837e-02 1.6755287639771351e-02  -1.6927496186330587e-03 -1.1382135353330472e-02 1.2655182712490127e-02  -2.3728551225161388e-03 -1.0934553249401863e-01 3.2702700106300456e-02  -1.8168867695621408e-03 -1.0805065131897605e-01 3.5238267484838694e-02  -1.2938571026899172e-03 -1.0637539365311247e-01 3.734