<?xml version="1.0"?>
<VTKFile type="UnstructuredGrid"  version="0.1"  >
<UnstructuredGrid>
<Piece  NumberOfPoints="982" NumberOfCells="4267">
<Points>
<DataArray  type="Float64"  NumberOfComponents="3"  format="ascii">10.77217775176884 4.138345705857528 1.018016856440448  10.83845635050178 4.008594166425236 0.9226943936388814  10.71151990722335 4.043168749830587 0.9568038549299135  10.70485065318515 4.087477987637863 0.8935187551706726  10.83303960429854 4.049856156087908 0.8552060096616328  10.76454197213542 4.189073856773939 0.9584616360840722  10.69856243607851 4.131789383440235 0.830539691038461  10.82796489394984 4.091110124504421 0.7880594416845789  10.75728687263333 4.239697259625288 0.8992439783850347  10.69249085665298 4.175983498573603 0.767869501217339  10.82316189180318 4.132228712982715 0.7212736971349542  10.75031672766627 4.290121856844523 0.8403215102117338  10.68652832565394 4.22007898589764 0.7054765933464763  10.03617965698703 3.7065987064617 0.8692861443173574  10.04418622241064 3.598834226573001 0.8339598380096087  9.93207089939734 3.613033129566723 0.8549644709563538  9.922745689267213 3.629628062241274 0.7832060709439241  10.03416666205774 3.614268433032245 0.7623493992833978  10.02725011340499 3.730846877888712 0.7994702623091356  10.01846750119299 3.75534218828326 0.7295762053531251  10.02428381006517 3.629916377154819 0.6906081447652352  9.913496770347898 3.646418800997101 0.7112983073691115  10.00974304586449 3.779923459886191 0.6595999060537445  10.01445321192021 3.645614643475499 0.6187738574504782  9.904275376617283 3.66324784925729 0.639283908347778  10.00100262995815 3.80446390192767 0.5895508466232299  10.00459488754353 3.661254725855371 0.5468605644590778  9.895028105200479 3.68001602730062 0.5671743945447697  9.992179912609018 3.828866673384242 0.5194155651032909  9.994631841089264 3.676744721162463 0.4748573954786582  9.885700840397487 3.696639415200236 0.4949641805165525  9.983224894082875 3.853048622630048 0.4491648369210692  9.984504485695153 3.69202462885571 0.4027359422867317  9.876258274070858 3.71308293416067 0.4226163500545815  9.931977610504457 3.763632443341138 0.8989465602554592  9.922833102748845 3.792880943092879 0.8301013101604666  9.913794933025677 3.822372287331357 0.7611952339182206  9.904790567054796 3.851921006923815 0.6922225734026943  10.74876089847245 3.94915651307609 0.8939474617986947  10.6324966731378 3.930011763891823 0.8942396114288712  10.62747009302633 3.96653613917826 0.827265241402291  10.74399711111163 3.986427799953603 0.8257835018532294  10.73958654535454 4.02373817712426 0.7579743710025364  10.62280603142874 4.00314671426714 0.7606084943824587  10.73536947491991 4.06099700817744 0.6904485074505515  10.61832417773047 4.039764459200968 0.6941721061191282  10.73125500443526 4.098234041736821 0.6232035552460737  10.61395556840671 4.076437459029695 0.6279562427818498  10.68049746354168 4.264032223140249 0.6433484553912823  10.72706877938715 4.135377023194204 0.5562471230567434  10.609464986437 4.112987534246306 0.5619235696292592  10.67404998811983 4.307649294158229 0.5813909103865424  10.72244583577395 4.172178013834615 0.4895458253199138  10.60460800424038 4.14921553020435 0.4960554435512169  10.59813569376975 4.070543356058357 0.987078191790894  10.59071253183514 4.117362057732481 0.9272355138604951  10.58364472897117 4.164178031200425 0.867658467564883  10.57679874295857 4.210921561203298 0.8083058934916338  10.57007276118012 4.257616776870304 0.7491748403251995  10.56323817007321 4.30412068614754 0.690222523722747  10.55601829386584 4.350300107409869 0.6313874714536349  9.855066468183308 3.385759315260843 0.8407162290331425  9.822522426812681 3.281936564342686 0.8515017966298501  9.715158869837284 3.369244500365312 0.8560541100976971  9.708649432437005 3.368167801250249 0.7843268312263274  9.815653508098251 3.271546482664168 0.7818648311205448  9.847138613231827 3.385187606899786 0.7691041915837924  9.702100442682838 3.367081604002637 0.7124293445202649  9.808789097655 3.261040957174672 0.7120881773085442  9.839214212643521 3.384623972786666 0.6973192173402909  9.695524047574734 3.365944659179143 0.6404107536175898  9.80190494584066 3.250479087312973 0.6422333167160301  9.831291526658438 3.384021929511286 0.6254148994560719  9.688925665648148 3.364720759710789 0.5682979033351279  9.794980842878036 3.23987003909518 0.572318312179007  9.823341409749347 3.383343290375134 0.5534174330555461  9.682317317462106 3.363420680701255 0.4960774517373291  9.788006854692958 3.229198731737004 0.5023199164664596  9.815325444270437 3.382531634670443 0.4813249940008359  9.675739044999718 3.362052079978362 0.4237363186280203  9.781038621549811 3.218480084549831 0.43217355608825  9.807293219020698 3.381631791087206 0.409079551533875  9.793514396636791 3.466637652593837 0.852086047573545  9.785800709370362 3.471238207484412 0.7796220482291476  9.778091715345326 3.475883275032946 0.7069554883895057  9.770380739237675 3.48051036972059 0.6341487488150336  9.762643205148931 3.485057611525803 0.5612360149319702  9.754859552497981 3.489479924898853 0.488218690007481  9.747072911418375 3.493799929926666 0.4150677673642783  10.53748850807149 3.984317669945653 0.9341898421897697  10.53021924122578 4.025594858744669 0.8710940059219062  10.52330575941244 4.06696359612218 0.8082397968683723  10.51661961158612 4.108398150736287 0.7455690310228572  10.51001186032786 4.149838112807871 0.6830622485399475  10.50326583014895 4.191120197459775 0.6206735663303385  10.49614262560211 4.232078894619485 0.5583342125340891  10.56484382939248 3.369792704725523 0.7627306381169537  10.4712273986084 3.309904896692468 0.7775194254748214  10.48425787727582 3.441228915326241 0.7678286633389517  10.47969359877315 3.444176972423119 0.6957786112463238  10.46496116872203 3.303527730016263 0.7076257189170276  10.55882409546924 3.368622468451551 0.6911180908303763  10.47545248723199 3.447431554959965 0.6236451753776425  10.45901994824625 3.297383951040388 0.6376029192042644  10.5531906806731 3.367765975252509 0.6194414197217806  10.47137355113637 3.450849818129154 0.5514923208409682  10.45323924241637 3.291372812748197 0.5675378433011157  10.54774894733779 3.367107409730816 0.5477541576721194  10.46730070011156 3.454288393068223 0.479359060411132  10.44746002064233 3.285388501789257 0.497487451027341  10.54232450438181 3.366507922256132 0.4761011457374481  10.46304938246314 3.457568446115016 0.4072659241414993  10.44151238954436 3.279283469936465 0.4274803159785424  10.5367091260848 3.365769699065065 0.4045154169707135  10.45839172997819 3.460462578879403 0.3352009619410806  10.43517529576783 3.272850153523462 0.3575120995297871  10.53059293386949 3.364618927161996 0.3330268304921413  10.73254841932159 4.203526442396145 1.097004067805446  10.65899059736529 4.133889350968746 1.037301634745002  10.57713041732082 4.203586235022156 1.123850035479796  10.65029031442195 4.186590446422795 0.9819185385600229  10.72239847099598 4.259947159881982 1.044719670895101  10.56630673860981 4.26067138454108 1.075565086433737  10.64202749920212 4.23914216138953 0.9269156823399169  10.55591556404261 4.317626947904211 1.027534400545151  11.03476076551456 3.842926719436334 0.8335538807228564  10.9136377281148 3.819243745229363 0.8286580869030881  10.93790293295784 3.922998007714075 0.8710715376434831  10.91169392350685 3.847289261450252 0.7542196813299373  10.93307920744716 3.956349429656368 0.7978575076690816  10.37633601954526 3.402873935499565 0.7748291949504683  10.37196022734651 3.402132975251975 0.7033773936222131  10.36784228151193 3.401629638235388 0.6317944934941488  10.36384188413266 3.401230318183377 0.5601640159393052  10.35982415910902 3.400813560587842 0.4885251254743764  10.35564534902201 3.400233881523786 0.4168956410302932  10.35116616425299 3.399333335504394 0.3452552518025946  10.63402060507073 4.291521541710414 0.8721721304237892  11.34686505564315 3.311228099759348 0.810327781299185  11.22790617751711 3.306292050552692 0.7990438024369783  11.22997103046173 3.426531185813658 0.7914856591654493  11.23702168843928 3.297111687456256 0.7212155065463708  11.35354052891953 3.300191583855344 0.7301022639155678  11.23705191388562 3.423223700251146 0.7111648493710927  11.24582204953619 3.288227193041299 0.6435489657621375  11.3599016762085 3.28933948783983 0.6500602584781214  11.24396813895229 3.420226707343143 0.6311707505055305  11.25439451752287 3.279579102922614 0.5660226690853944  11.36594845692681 3.278626691637834 0.5701417567325884  11.25073942792559 3.417455144174169 0.5514136211732237  11.26279387255076 3.271126618520275 0.4885866220336212  11.37175230389365 3.268034292961284 0.4903221972108031  11.25738073935038 3.414881038773973 0.4718465966311964  11.27104561128592 3.262801957290114 0.4111870423922496  11.3773055518566 3.257525123615073 0.410543490887964  11.2639419428922 3.412506950348615 0.3924570268977842  11.27906250017655 3.254331242219455 0.3338960439928111  11.38266633712927 3.247037740857627 0.3308133156076015  11.270226713697 3.410026018209291 0.3133723453579542  10.13870670575353 3.638161130113422 0.8327973182197145  10.16532272579726 3.739925296420981 0.8649821025319753  10.15571015977448 3.765886345216759 0.7963227552028024  10.12891886211092 3.658075662407166 0.7624722584357242  10.14634214649317 3.79215203095639 0.7276265795101231  10.11933835584827 3.678275753541246 0.6920435892821619  10.13708514580313 3.818529791610541 0.6588915959965868  10.10984543232773 3.698556315947376 0.6215433666567231  10.12782483967846 3.844881572374842 0.5901155327259144  10.10033488815731 3.718790912450674 0.5509845983953601  10.11845315720195 3.871098773518173 0.5212788767331793  10.09070340399249 3.738876642210691 0.4803599680172213  10.10884267424558 3.897060362144074 0.4523277266812964  10.08085166494934 3.758728365385231 0.4096272147374784  10.52430655103814 3.007188644122811 0.8490791098468164  10.4067058684388 2.957967669040133 0.8893879569724346  10.44453004051311 3.080552378907928 0.83164420
[...]
<PointData  Vectors="f_16"> 
<DataArray  type="Float64"  Name="f_16"  NumberOfComponents="3" format="ascii">-5.3129265512388717e-02 -7.1140330913866462e-03 8.0940316394549313e-04  -5.4792380768496428e-02 -1.4436130455424107e-02 -4.2279635508055344e-03  -5.2930969960781032e-02 -1.1642000977886249e-02 -1.1745997776010111e-03  -5.2784314854631871e-02 -1.4103344309330072e-02 -1.5050298011492762e-05  -5.4614209472261817e-02 -1.6251231798500430e-02 -2.9243749591424608e-03  -5.2896597643118305e-02 -1.0165684162967618e-02 1.5175150890362620e-03  -5.2885298854004378e-02 -1.5401627795395560e-02 9.8799170634678956e-04  -5.4754175512081227e-02 -1.6716681207857513e-02 -1.7059349176333193e-03  -5.2839268031165870e-02 -1.2461273942564976e-02 1.8758909994159717e-03  -5.3171854135135324e-02 -1.5476565755548878e-02 1.7232538115925166e-03  -5.5003091389695578e-02 -1.6061762928371512e-02 -7.5678955855289318e-04  -5.2907055944954144e-02 -1.3810045365466740e-02 1.8889513432371510e-03  -5.3393325159072968e-02 -1.5163760180842256e-02 1.8600833143528372e-03  -4.6867949073067169e-02 -1.7816894224797982e-02 -4.3205155367537921e-03  -4.7382670705474000e-02 -1.9788481173401859e-02 -1.0063914319582347e-02  -4.5806772897630063e-02 -1.9388894274711053e-02 -7.2254750955082154e-03  -4.5832904705635925e-02 -1.8665297151100862e-02 -6.2465316272300444e-03  -4.7451832867137174e-02 -1.8550165821750120e-02 -9.0954628599494419e-03  -4.6965297661888734e-02 -1.8039692991210665e-02 -3.0734980542921472e-03  -4.7224446507107054e-02 -1.6235423619947648e-02 -1.8431779506353522e-03  -4.8255418293906394e-02 -1.6079062043012137e-02 -8.2141190208078630e-03  -4.6553426957510829e-02 -1.6241910212548241e-02 -5.3178926168814551e-03  -4.8155196419766830e-02 -1.4050853067126156e-02 -8.4331202830622643e-04  -4.9289942694168976e-02 -1.3440643003205353e-02 -7.4185680748883355e-03  -4.7626240592494422e-02 -1.3625832220982254e-02 -4.5103024506280877e-03  -4.9102093102413549e-02 -1.1882942733493888e-02 -1.5560223254853183e-04  -5.0370067316977817e-02 -1.0733466352438879e-02 -6.8165960920970195e-03  -4.8729022375917121e-02 -1.1006272417545789e-02 -3.9311829121579699e-03  -5.0109987921455677e-02 -9.5202888992340865e-03 2.9042637815618149e-04  -5.1521786613942314e-02 -7.8433677938206121e-03 -6.3798041006690306e-03  -4.9890187451787971e-02 -8.2147145145136692e-03 -3.5456085002922651e-03  -5.1206345163969207e-02 -6.7823170563359771e-03 5.7535482549141267e-04  -5.2766944651999194e-02 -4.6693367466846764e-03 -6.0196410509204502e-03  -5.1144023205503278e-02 -5.0944733690129907e-03 -3.3008070266814069e-03  -4.5343165351442477e-02 -1.6334412442312873e-02 4.0688976729329668e-04  -4.5508248461793077e-02 -1.7372522468205281e-02 1.7644307342225486e-03  -4.5516162310762963e-02 -1.6170248906152634e-02 3.0302920097582359e-03  -4.6303898310285842e-02 -1.4368327774232505e-02 4.0194681604582413e-03  -5.3997139591110466e-02 -1.5829095531639276e-02 -5.3942546309886218e-03  -5.2656906464599688e-02 -1.5459400546605495e-02 -4.4715055061572461e-03  -5.2799228250903316e-02 -1.6883884198130052e-02 -3.0887289027994999e-03  -5.4025746946582374e-02 -1.7175103234978204e-02 -4.0378822492660562e-03  -5.4329023097185618e-02 -1.6989632228059874e-02 -2.7255202717094106e-03  -5.3111504406133388e-02 -1.6762081863563972e-02 -1.7546684089151368e-03  -5.4711633148595361e-02 -1.5766228424622209e-02 -1.6876719116319927e-03  -5.3563362276609447e-02 -1.5566269164350029e-02 -6.7126098060056084e-04  -5.5080274589898198e-02 -1.4581311185436882e-02 -1.0707931500447605e-03  -5.4074535590200895e-02 -1.4338282790871943e-02 -5.3094721273223273e-05  -5.3756816119255438e-02 -1.4680871042659031e-02 1.6136460696090044e-03  -5.5553036913640552e-02 -1.3245386195587796e-02 -7.4788895921361028e-04  -5.4667782349135198e-02 -1.2958403147464739e-02 2.4803047989302733e-04  -5.4349888132306561e-02 -1.3875787751219365e-02 1.0969902388174547e-03  -5.6228881793854560e-02 -1.1571858473637330e-02 -5.6139873830273206e-04  -5.5439268023123968e-02 -1.1195025307062170e-02 3.6594849703046350e-04  -5.1415630269177878e-02 -9.1435692829947568e-03 1.3532254851230938e-03  -5.1392529390321705e-02 -1.2021343870364064e-02 2.3240161018097754e-03  -5.1490229408942198e-02 -1.3943735949049539e-02 3.0238733936368500e-03  -5.1687568360621848e-02 -1.4726106278878237e-02 3.4117446018123105e-03  -5.1895922232002144e-02 -1.4865295095273404e-02 3.2164556976721367e-03  -5.2248312557028262e-02 -1.4732199053587323e-02 2.5832021234268002e-03  -5.2834349147944631e-02 -1.4318934265629574e-02 1.6239891497786551e-03  -4.5745924012368600e-02 -2.3070155448462294e-02 -1.7520354127234756e-02  -4.5857116925061170e-02 -2.5222396824421428e-02 -2.2079570779518696e-02  -4.3837172463443097e-02 -2.3268694583622289e-02 -1.5654820023001757e-02  -4.4311510060574745e-02 -2.0462966848715448e-02 -1.5498413919991358e-02  -4.6193692711807004e-02 -2.1891934480607472e-02 -2.2337641952042121e-02  -4.6003928730923210e-02 -2.0391643121444467e-02 -1.7306297640904262e-02  -4.5605582350970689e-02 -1.7498675755607259e-02 -1.5387964928016666e-02  -4.7430003284215205e-02 -1.8978452425889990e-02 -2.2650380764173209e-02  -4.7195479724976799e-02 -1.7494298121124258e-02 -1.7153808106685181e-02  -4.6871524361465855e-02 -1.4477878653996136e-02 -1.5359681655401330e-02  -4.8743149031949463e-02 -1.5947398736959648e-02 -2.3038672815499244e-02  -4.8475448711381694e-02 -1.4436670088141496e-02 -1.7053451443135324e-02  -4.8173268705590959e-02 -1.1361681354388652e-02 -1.5448903256226901e-02  -5.0072503232031766e-02 -1.2794362205147959e-02 -2.3516254591071574e-02  -4.9767657346460978e-02 -1.1296440359484015e-02 -1.7063379527165079e-02  -4.9516640726862626e-02 -8.1184914908455068e-03 -1.5648825498120716e-02  -5.1431627297286467e-02 -9.5297601294451317e-03 -2.4082503202398610e-02  -5.1097839589875620e-02 -8.0323722565622518e-03 -1.7176317982959065e-02  -5.0913325307675235e-02 -4.7052970236533360e-03 -1.5934700669750879e-02  -5.2835659197965207e-02 -6.1572800805296500e-03 -2.4703981885612361e-02  -5.2475038089924576e-02 -4.6011690461003531e-03 -1.7357351759204144e-02  -4.4583985686096304e-02 -2.1702759266839761e-02 -1.2185030934644733e-02  -4.4730182178041637e-02 -1.9699818589567542e-02 -1.1777242567804472e-02  -4.5874496619023680e-02 -1.6817506583486779e-02 -1.1388840992893169e-02  -4.7110504908779084e-02 -1.3867989904456883e-02 -1.1083844242680248e-02  -4.8369918458736755e-02 -1.0861201733203983e-02 -1.0929602369919784e-02  -4.9677141112169781e-02 -7.7086540430703924e-03 -1.0904247809767890e-02  -5.1046946290170030e-02 -4.3362859365157578e-03 -1.0974234250782556e-02  -5.1209849733557578e-02 -1.2793150421042098e-02 -6.3202178720562921e-04  -5.1326087197241632e-02 -1.4998126502654925e-02 6.5563092928751102e-04  -5.1523694189363513e-02 -1.5856206420810842e-02 1.8397186204250349e-03  -5.1836451836142668e-02 -1.5453786785618946e-02 2.7071107827371286e-03  -5.2240303351351929e-02 -1.4815197255279427e-02 3.0021742897626347e-03  -5.2791660991871832e-02 -1.3969730033261735e-02 2.9065589003561404e-03  -5.3541204193369170e-02 -1.2753686649972519e-02 2.5777895909830728e-03  -5.6737745894420127e-02 -2.4608056163430831e-02 -3.0837671322790298e-02  -5.5698821213034821e-02 -2.5599971610187670e-02 -3.2253704463649571e-02  -5.4813636722763730e-02 -2.3015544576759112e-02 -2.6143885024543755e-02  -5.5212791512667593e-02 -2.0474536521634255e-02 -2.5880626456118432e-02  -5.5916045367157954e-02 -2.2632620331302249e-02 -3.2359060609088351e-02  -5.6983187708011210e-02 -2.1805827724285885e-02 -3.0728050294680617e-02  -5.5892633668357991e-02 -1.7786365049074861e-02 -2.5628789648264944e-02  -5.6579900622056520e-02 -2.0064337854546886e-02 -3.2496285174105674e-02  -5.7568090759412376e-02 -1.9089499244089449e-02 -3.0635915277294756e-02  -5.6669639472065943e-02 -1.4970972762948363e-02 -2.5373507172230081e-02  -5.7366994733938505e-02 -1.7251817099296605e-02 -3.2623816264402250e-02  -5.8248414040693891e-02 -1.6208192783462212e-02 -3.0532943094744955e-02  -5.7574878458768963e-02 -1.1971317705949398e-02 -2.5127547000442851e-02  -5.8294821651884043e-02 -1.4211406304738161e-02 -3.2757720688395907e-02  -5.9065747624838023e-02 -1.3142302416484460e-02 -3.0428238140358763e-02  -5.8568456893000380e-02 -8.8226813685676822e-03 -2.4905857754415801e-02  -5.9322422319072095e-02 -1.1027861334734953e-02 -3.2904334999517525e-02  -5.9993110973717768e-02 -9.9440544988301637e-03 -3.0333708704268648e-02  -5.9625094464846637e-02 -5.5326517481219745e-03 -2.4716272705746535e-02  -6.0446032680272911e-02 -7.7517773838349209e-03 -3.3074313010787185e-02  -6.1036716516938552e-02 -6.6598937262096871e-03 -3.0245151802172351e-02  -5.2574123131587470e-02 -4.5667780954736318e-04 2.9503969922545954e-03  -5.1801330213254393e-02 -5.2463346628551216e-03 2.2226845125166853e-03  -5.0980354137173077e-02 2.4277117539433170e-03 4.9832724758723792e-03  -5.1620859472340137e-02 -8.4664347837430220e-03 2.8118306269367221e-03  -5.2210149083661617e-02 -4.0878752530493015e-03 2.8885115716693571e-03  -5.0561759849533920e-02 -1.4759859298799324e-03 4.4366387752503471e-03  -5.1623522877262580e-02 -1.1052908494372434e-02 2.9822282777652045e-03  -5.0202712935798692e-02 -4.6231028169435983e-03 3.4257248620129105e-03  -5.9377753427849629e-02 -2.1128568875109003e-02 -1.3708923941279915e-02  -5.7612408644023956e-02 -2.0438736180093599e-02 -1.3532984114199587e-02  -5.7002912187238450e-02 -1.8243546710779154e-02 -9.0544022481095100e-03  -5.7716437813910983e-02 -2.0034377847898063e-02 -1.2286071424874291e-02  -5.6868383893562462e-02 -1.8923960739196884e-02 -7.7502799571735727e-03  -5.3417089986726431e-02 -2.3239857507410283e-02 -2.6244812199867084e-02  -5.3903451589486014e-02 -2.0609591797694268e-02 -2.6159540305482138e-02  -5.4645282568331510e-02 -1.7984278576491548e-02 -2.6084757868309251e-02  -5.5548686008937531e-02 -1.5157099619947465e-02 -2.6008645701437582e-02  -5.6586124074112336e-02 -1.2115580971556735e-02 -2.5947503597160578e-02  -5.7699966273458400e-02 -8.9206019213827290e-03 -2.5911011597262269e-02  -5.8860573082612930e-02 -5.5767712410420608e-03 -2.5908605592645097e-02  -5.1659676366233184e-02 -1.2754784872647270e-02 2.7945827605879939e-03  -6.9251371884791496e-02 -3.4023940032048498e-02 -3.9744497855590651e-02  -6.7548468082295962e-02 -3.2789343291917031e-02 -3.9776320595862003e-02  -6.6781536532342631e-02 -3.0661742576240755e-02 -3.4322218372371233e-02  -6.7614704358789621e-02 -2.9265898027116533e-02 -4.0085146969681643e-02  -6.9157574881136288e-02 -3.0324122086900447e-02 -4.0125335931224811e-02  -6.6632692547894931e-02 -2.7291878662068270e-02 -3.4379229952254224e-02  -6.7430197785679602e-02 -2.6155302717091183e-02 -4.0416713494259036e-02  -6.8798863698418977e-02 -2.7222475514273047e-02 -4.0529295981875706e-02  -6.6312252234700442e-02 -2.4189349423683872e-02 -3.4450547741562927e-02  -6.7387173410543483e-02 -2.2989777046825376e-02 -4.0736694077378573e-02  -6.8590321248286248e-02 -2.4064691628440896e-02 -4.0929228011674916e-02  -6.6147901489312433e-02 -2.1036082656795949e-02 -3.4507655520584983e-02  -6.7474090478108262e-02 -1.9700151292673253e-02 -4.1046118380483720e-02  -6.8537524235637748e-02 -2.0749661950141662e-02 -4.1323147785878138e-02  -6.6128612403344292e-02 -1.7745428354626017e-02 -3.4553445514163422e-02  -6.7651241656375552e-02 -1.6221494040671969e-02 -4.1349396706170688e-02  -6.8593842563114113e-02 -1.7198735060251762e-02 -4.1709535337579394e-02  -6.6215185083120701e-02 -1.4259384323198600e-02 -3.4585879943881945e-02  -6.7781226379596132e-02 -1.2524761452252628e-02 -4.1656421607505482e-02  -6.8602975718321191e-02 -1.3354186229256703e-02 -4.2088417987238246e-02  -6.6269722063318520e-02 -1.0521732296606381e-02 -3.4618881101837543e-02  -4.8469369276451665e-02 -1.9270061284220773e-02 -9.7436452388638146e-03  -4.8328418374124167e-02 -1.7450102514440211e-02 -5.0114852992774132e-03  -4.8547933814746355e-02 -1.7862599129208342e-02 -3.6857253541296019e-03  -4.8567145483228172e-02 -1.8401673392400075e-02 -8.5862206570112166e-03  -4.8698388283567574e-02 -1.6256860609784624e-02 -2.4309207958142821e-03  -4.9247022256312924e-02 -1.6075544720779159e-02 -7.5315640411033049e-03  -4.9557133174047474e-02 -1.4221804352650472e-02 -1.3482676835841242e-03  -5.0171589248495400e-02 -1.3609154452772262e-02 -6.5721495239400816e-03  -5.0398962864458864e-02 -1.2206640245866615e-02 -5.9364537061349525e-04  -5.1147215100196430e-02 -1.1098533709859758e-02 -5.8081639622772855e-03  -5.1337779008434579e-02 -9.9885873920794420e-03 -7.6500560587338122e-05  -5.2205133207574472e-02 -8.4040553078077260e-03 -5.2193881215362630e-03  -5.2420783295796192e-02 -7.3744022626606384e-03 2.6833892424170467e-04  -5.3380724949345468e-02 -5.3821023882966905e-03 -4.7355039913909817e-03  -5.8983883968424279e-02 -3.5119326245598152e-02 -4.6199147117035051e-02  -5.7505281071495391e-02 -3.7512833636415485e-02 -4.6702924518519519e-02  -5.7236089820337246e-02 -3.2292844565361731e-02 -4.2006886714971693e-02  -5.7425083446924249e-02 -2.8876160793931644e-02 -4.2818392075590760e-02  -5.8020805424107737e-02 -3.4017070761644272e-02 -4.7833393749201182e-02  -5.9394009502734393e-02 -3.1701186028223270e-02 -4.7134316174732162e-02  -5.7654314176242512e-02 -2.6251672536268998e-02 -4.3660513703764232e-02  -5.8126172039578969e-02 -3.1251227144005335e-02 -4.8945630508981909e-02  -5.9554430744936840e-02 -2.9054397624086011e-02 -4.8097106707273067e-02  -5.8362331605989921e-02 -2.3722426558973546e-02 -4.4535799069327794e-02  -5.8485383822791330e-02 -2.8753989822171748e-02 -5.0069719906574335e-02  -6.0017296767183231e-02 -2.6569391026162577e-02 -4.9068350305790175e-02  -5.9263618322943259e-02 -2.0960374967786528e-02 -4.5431870342851247e-02  -5.9245970787791667e-02 -2.6236871344717447e-02 -5.1207430359263929e-02  -6.0750640911487457e-02 -2.3898695581360423e-02 -5.0031983033745835e-02  -6.0249876946236042e-02 -1.8020379310437085e-02 -4.6327880651187897e-02  -6.0148323333697441e-02 -2.3550586563710479e-02 -5.2364462710464577e-02  -6.1613961806104255e-02 -2.1047778284369278e-02 -5.1000243557739147e-02  -6.1327173628747789e-02 -1.4995541408247885e-02 -4.7233090961521174e-02  -6.1105880645294437e-02 -2.0708232583717366e-02 -5.3575790753660937e-02  -6.2558106176490005e-02 -1.8079601631951235e-02 -5.1980459711915589e-02  -4.7454162882193986e-02 -1.5861435750656634e-02 -7.3538232261648672e-04  -4.7722919826132207e-02 -1.7022051785794537e-02 7.0461509648225547e-04  -4.7690284432376835e-02 -1.6159449492776968e-02 2.0142019220826795e-03  -4.8308744147800356e-02 -1.4584550486846986e-02 3.0811305425996944e-03  -4.9049070067844494e-02 -1.3040854443152188e-02 3.6874493149827115e-03  -4.9894966420693743e-02 -1.1247259370711710e-02 3.9656896654019615e-03  -5.0865245086388178e-02 -9.0119377514968797e-03 4.0762964956339784e-03  -6.0266566691814100e-02 -3.9176077852645846e-02 -5.0005537889100421e-02  -6.0703538112028867e-02 -3.6026091260782253e-02 -5.1247368373788363e-02  -6.0939531291646441e-02 -3.3305512232624894e-02 -5.2341666803708400e-02  -6.1166272042247810e-02 -3.0925499447238845e-02 -5.3423905079218202e-02  -6.1654117406757636e-02 -2.8471108742609490e-02 -5.4492096714408904e-02  -6.2361055023329885e-02 -2.5858215797244247e-02 -5.5540708565264642e-02  -6.3147702447094028e-02 -2.3077276272698535e-02 -5.6608173784272388e-02  -6.0881541533784458e-02 -2.5305798716992376e-02 -2.9511615280990375e-02  -5.9611552996078378e-02 -2.4784437823706117e-02 -3.0342743446208000e-02  -5.8443756379210503e-02 -2.3155919631076213e-02 -2.4310561015607159e-02  -5.8808297244710782e-02 -2.0815983051598187e-02 -2.3701008875343793e-02  -5.9987439131310535e-02 -2.2001684908820329e-02 -3.0151011670037788e-02  -6.1198983543795091e-02 -2.2580809990596477e-02 -2.9245236277439426e-02  -5.9188711914604973e-02 -1.7994128968300358e-02 -2.3079055457244976e-02  -6.0386439082430014e-02 -1.9106139844322710e-02 -2.9956063135207094e-02  -6.1491537267953575e-02 -1.9630570009817244e-02 -2.8968914822545266e-02  -5.9656237711508596e-02 -1.5136670876767566e-02 -2.2458377762456606e-02  -6.0884070273582107e-02 -1.6095512248994047e-02 -2.9745447194842480e-02  -6.1851679879977257e-02 -1.6613412960181834e-02 -2.8676722208487864e-02  -6.0225414921864374e-02 -1.2192896284222677e-02 -2.1846846031146370e-02  -6.1471722887405114e-02 -1.2966317986718084e-02 -2.9519703828225101e-02  -6.2300804917085326e-02 -1.3481145312373348e-02 -2.8366021020667532e-02  -6.0852134330694634e-02 -9.1575489621840440e-03 -2.1252656393534720e-02  -6.2142872168544389e-02 -9.7383875653708173e-03 -2.9289851455247658e-02  -6.2815114053912852e-02 -1.0254362639585722e-02 -2.8042347020921180e-02  -6.1517664237274880e-02 -5.9853893028782960e-03 -2.0662466850240514e-02  -6.2883994477942975e-02 -6.3859440555110039e-03 -2.9070476412158062e-02  -6.3363232362826247e-02 -6.8975697099755099e-03 -2.7732065332788658e-02  -5.1701734472973736e-02 -3.2690279497273787e-02 -3.7014233330192860e-02  -4.9537753834037121e-02 -3.0986503960346960e-02 -3.3207463201090706e-02  -5.0752317963042956e-02 -2.8645825645704559e-02 -3.2548829579558555e-02  -5.0775169788333477e-02 -2.5186150455185054e-02 -3.3148925981371535e-02  -4.9787528133506849e-02 -2.7134520133279823e-02 -3.4043183935690960e-02  -5.2025797690913256e-02 -2.9004074517930002e-02 -3.8008711289894775e-02  -5.1429197378938814e-02 -2.2279742934442810e-02 -3.3826254228476009e-02  -5.0227604113125886e-02 -2.4034691389638579e-02 -3.4947509464078569e-02  -5.2267239740319951e-02 -2.6027365876339751e-02 -3.9062847394551799e-02  -5.2659830741518948e-02 -1.9464938086396190e-02 -3.4583795668556759e-02  -5.1304347483277495e-02 -2.1171506542381306e-02 -3.5905000620182474e-02  -5.3135504405635012e-02 -2.3288660287334013e-02 -4.0135152741319090e-02  -5.3875375536500507e-02 -1.6405329437669727e-02 -3.5376807307214861e-02  -5.2557084077380849e-02 -1.8262514778584021e-02 -3.6953707496460875e-02  -5.4303045030823116e-02 -2.0503001454967064e-02 -4.1285595155970300e-02  -5.5146466806413628e-02 -1.3247126199225058e-02 -3.6228461376837759e-02  -5.3833482937208715e-02 -1.5222206352403501e-02 -3.8092780251656223e-02  -5.5512643797912473e-02 -1.7581171924215464e-02 -4.2525130713022143e-02  -5.6509644311667280e-02 -1.0019369403359303e-02 -3.7134321585274625e-02  -5.5174388452407602e-02 -1.2101087687188559e-02 -3.9316524819858291e-02  -5.6776286317238051e-02 -1.4544670454845133e-02 -4.3842740706237573e-02  -6.1885958143190388e-02 -2.7140222357957978e-02 -3.4882500464464318e-02  -6.2159950875654402e-02 -2.4143149917693642e-02 -3.4915251106131695e-02  -6.2444081101443456e-02 -2.1159131768549715e-02 -3.4925131418823398e-02  -6.2822050416447880e-02 -1.8068084563512398e-02 -3.4918145766162804e-02  -6.3285590898674388e-02 -1.4853949093789830e-02 -3.4895137341709938e-02  -6.3806953390273397e-02 -1.1517125014568530e-02 -3.4863159336234198e-02  -6.4350254510874907e-02 -8.0189956944144332e-03 -3.4844464137791069e-02  -6.5054659979693230e-02 -2.9427932096013281e-02 -3.4625488871188548e-02  -6.5133838638545466e-02 -2.6222462540700830e-02 -3.4656530153283148e-02  -6.5062265849384140e-02 -2.3148216478361693e-02 -3.4703969941179677e-02  -6.5118968931173832e-02 -2.0022639970852320e-02 -3.4731444116760837e-02  -6.5289199893939540e-02 -1.6771702469795792e-02 -3.4742251157915842e-02  -6.5533270199878674e-02 -1.3359212199243048e-02 -3.4738648977107878e-02  -6.5742243012696197e-02 -9.7500791568265882e-03 -3.4741424388583901e-02  -5.0644873937635247e-02 -3.8960168015977738e-03 3.7494881995349351e-03  -5.0168882109458537e-02 -8.3160811258029370e-03 2.8164346318015005e-03  -4.9677907975727520e-02 1.2183577956265416e-03 6.0713339589914374e-03  -5.0151027513533612e-02 -1.1333087005114827e-02 3.8104981617831531e-03  -5.0502121832100504e-02 -7.3067548776619175e-03 4.2096804406592907e-03  -4.9300601390636710e-02 -2.6414500795110597e-03 5.7425068659735087e-03  -5.0241486386776966e-02 -1.3414100980478245e-02 4.5198454508849151e-03  -5.0466680238190287e-02 -1.0076354273382875e-02 4.1958728666523929e-03  -4.9056891527150502e-02 -5.7710910041731721e-03 4.9203576161824638e-03  -5.0336279112395528e