<?xml version="1.0"?>
<VTKFile type="UnstructuredGrid"  version="0.1"  >
<UnstructuredGrid>
<Piece  NumberOfPoints="142" NumberOfCells="383">
<Points>
<DataArray  type="Float64"  NumberOfComponents="3"  format="ascii">0 0 0  0 1 0  1 1 0  1 0 0  0 0.09999999999981467 0  0 0.1999999999995579 0  0 0.2999999999992664 0  0 0.3999999999989749 0  0 0.4999999999986943 0  0 0.5999999999989468 0  0 0.69999999999921 0  0 0.7999999999994734 0  0 0.8999999999997368 0  0.09999999999981467 1 0  0.1999999999995579 1 0  0.2999999999992664 1 0  0.3999999999989749 1 0  0.4999999999986943 1 0  0.5999999999989468 1 0  0.69999999999921 1 0  0.7999999999994734 1 0  0.8999999999997368 1 0  1 0.8999999999995836 0  1 0.7999999999999998 0  1 0.7000000000006934 0  1 0.6000000000013869 0  1 0.5000000000020587 0  1 0.4000000000016644 0  1 0.3000000000012483 0  1 0.2000000000008322 0  1 0.100000000000416 0  0.8999999999995836 0 0  0.7999999999999998 0 0  0.7000000000006934 0 0  0.6000000000013869 0 0  0.5000000000020587 0 0  0.4000000000016644 0 0  0.3000000000012483 0 0  0.2000000000008322 0 0  0.100000000000416 0 0  0.5 0.5 0  0.7071428571428401 0.7071428571428752 0  0.7071428571428829 0.292857142857163 0  0.2928571428571245 0.7071428571428393 0  0.2928571428571638 0.2928571428571166 0  0.7848800793697626 0.4969996804011801 0  0.4969996804011856 0.2151199206302399 0  0.5030003195988224 0.7848800793697341 0  0.2151199206302686 0.5030003195988173 0  0.8294973544973363 0.829497354497414 0  0.8294973544974497 0.1705026455026733 0  0.1705026455025708 0.8294973544972866 0  0.1705026455027228 0.1705026455025349 0  0.8488660690838694 0.640710112639327 0  0.640710112639334 0.1511339309161314 0  0.8481751902264412 0.3592052746310418 0  0.6407947253690727 0.8481751902263315 0  0.3592898873606543 0.8488660690839257 0  0.3592052746310573 0.1518248097735569 0  0.1511339309160751 0.359289887360648 0  0.1518248097736666 0.6407947253690573 0  0.6401567944250817 0.5669860627177818 0  0.5720108710844389 0.3639360530549316 0  0.4330139372822172 0.640156794425081 0  0.3564328676413127 0.4317691437943251 0  0.6595278631988934 0.4315872180136938 0  0.5586987495249733 0.6661733647266972 0  0.4345313304880075 0.3457376867591684 0  0.3338266352733065 0.5586987495249669 0  0.8903241140725424 0.4604652914507276 0  0.4604652914507329 0.1096758859274591 0  0.5395347085494732 0.8903241140724611 0  0.1096758859275405 0.5395347085494682 0  0.9023348642130153 0.7390736031440464 0  0.7390736031440744 0.09766513578698902 0  0.2609263968558969 0.9023348642130203 0  0.09766513578698408 0.2609263968558689 0  0.740304764090288 0.9005590740427145 0  0.9005590740428264 0.2596952359098 0  0.09944092595728007 0.7403047640902634 0  0.2596952359098248 0.09944092595716837 0  0.7452829717179744 0.6041206249238611 0  0.6077794250775408 0.2557478785835854 0  0.3958793750761198 0.7452829717180284 0  0.2547170282819742 0.3958793750761136 0  0.7464813642542797 0.3934068318485568 0  0.6053789140938055 0.7473120519452107 0  0.3937748459078564 0.2541768294904769 0  0.2526879480547886 0.6053789140937944 0  0.9001218934945733 0.9001218934945729 0  0.9001218934945807 0.09987810650541903 0  0.09987810650543673 0.9001218934945625 0  0.09987810650542965 0.09987810650542893 0  0.9167792112837924 0.5690795758194069 0  0.5690795758194102 0.08322078871620855 0  0.4309204241808255 0.9167792112837907 0  0.08322078871621014 0.4309204241808227 0  0.7207306519691901 0.793413392032122 0  0.7932749440837036 0.2790669723545777 0  0.206586607967867 0.7207306519691723 0  0.2791283080311434 0.2068347548737451 0  0.8012652966217981 0.7277938243381868 0  0.7277938243383418 0.1987347033782311 0  0.2722061756617718 0.8012652966217936 0  0.1987347033782355 0.2722061756616174 0  0.5893512154037218 0.4871850116388043 0  0.5411241892242508 0.5803268259738074 0  0.491135371445602 0.4096773265454885 0  0.4268010624582881 0.5549180143374142 0  0.6400172180368688 0.65023210348845 0  0.6543708124739787 0.3538586779068587 0  0.3480475726622802 0.6424993192059415 0  0.3546273889992878 0.3470158314432938 0  0.9335960289161355 0.6497726583209722 0  0.6497726583209799 0.0664039710838658 0  0.3502273416791237 0.9335960289161473 0  0.06640397108385386 0.3502273416791162 0  0.6441268396013982 0.9278116756683015 0  0.07218832433169743 0.6441268396013892 0  0.927811675668362 0.3558731603988964 0  0.3558731603989055 0.07218832433163684 0  0.9200285942774967 0.8201017201097204 0  0.8201017201097339 0.07997140572249425 0  0.1798982798902575 0.9200285942774354 0  0.07997140572255566 0.1798982798902443 0  0.8201017201098527 0.9200285942777351 0  0.07997140572227604 0.8201017201098352 0  0.9200285942778361 0.1798982798901033 0  0.1798982798901216 0.07997140572217544 0  0.6985090438889192 0.5077206954042229 0  0.5086892385809004 0.3021029570484977 0  0.4954154029833465 0.7122390165456542 0  0.2872737923209753 0.4952375753422132 0  0.8372264891055882 0.5542750570469005 0  0.559069788707486 0.1668753040725713 0  0.4457249429531791 0.8372264891055882 0  0.1627735108944137 0.4457249429531739 0  0.8174651869807564 0.4275192695828766 0  0.427611273097708 0.1826993614554332 0  0.5721771669027933 0.8176728589034343 0  0.1823271410965661 0.5721771669027843 0  0.4325419913433259 0.461024257085337 0  </DataArray>
</Points>
<Cells>
<DataArray  type="UInt32"  Name="connectivity"  format="ascii">0 4  0 39  0 92  1 12  1 13  1 91  2 21  2 22  2 89  3 30  3 31  3 90  4 5  4 92  4 124  5 6  5 76  5 124  6 7  6 76  6 116  7 8  7 96  7 116  8 9  8 72  8 96  9 10  9 72  9 118  10 11  10 79  10 118  11 12  11 79  11 126  12 91  12 126  13 14  13 91  13 123  14 15  14 75  14 123  15 16  15 75  15 115  16 17  16 95  16 115  17 18  17 71  17 95  18 19  18 71  18 117  19 20  19 77  19 117  20 21  20 77  20 125  21 89  21 125  22 23  22 89  22 121  23 24  23 73  23 121  24 25  24 73  24 113  25 26  25 93  25 113  26 27  26 69  26 93  27 28  27 69  27 119  28 29  28 78  28 119  29 30  29 78  29 127  30 90  30 127  31 32  31 90  31 122  32 33  32 74  32 122  33 34  33 74  33 114  34 35  34 94  34 114  35 36  35 70  35 94  36 37  36 70  36 120  37 38  37 80  37 120  38 39  38 80  38 128  39 92  39 128  40 105  40 106  40 107  40 108  40 141  41 81  41 86  41 97  41 101  41 109  42 82  42 85  42 98  42 102  42 110  43 83  43 88  43 99  43 103  43 111  44 84  44 87  44 100  44 104  44 112  45 69  45 81  45 85  45 129  45 133  45 137  46 70  46 82  46 87  46 130  46 134  46 138  47 71  47 83  47 86  47 131  47 135  47 139  48 72  48 84  48 88  48 132  48 136  48 140  49 73  49 77  49 89  49 97  49 101  49 121  49 125  50 74  50 78  50 90  50 98  50 102  50 122  50 127  51 75  51 79  51 91  51 99  51 103  51 123  51 126  52 76  52 80  52 92  52 100  52 104  52 124  52 128  53 73  53 81  53 93  53 101  53 113  53 133  54 74  54 82  54 94  54 102  54 114  54 134  55 69  55 78  55 85  55 98  55 119  55 137  56 71  56 77  56 86  56 97  56 117  56 139  57 75  57 83  57 95  57 103  57 115  57 135  58 70  58 80  58 87  58 100  58 120  58 138  59 76  59 84  59 96  59 104  59 116  59 136  60 72  60 79  60 88  60 99  60 118  60 140  61 81  61 105  61 106  61 109  61 129  62 65  62 82  62 105  62 107  62 110  62 130  63 66  63 83  63 106  63 108  63 111  63 131  64 67  64 68  64 84  64 112  64 132  64 141  65 85  65 105  65 110  65 129  66 86  66 106  66 109  66 131  67 87  67 107  67 112  67 130  67 141  68 88  68 108  68 111  68 132  68 141  69 93  69 119  69 133  69 137  70 94  70 120  70 134  70 138  71 95  71 117  71 135  71 139  72 96  72 118  72 136  72 140  73 101  73 113  73 121  74 102  74 114  74 122  75 103  75 115  75 123  76 104  76 116  76 124  77 97  77 117  77 125  78 98  78 119  78 127  79 99  79 118  79 126  80 100  80 120  80 128  81 101  81 109  81 129  81 133  82 102  82 110  82 130  82 134  83 103  83 111  83 131  83 135  84 104  84 112  84 132  84 136  85 98  85 110  85 129  85 137  86 97  86 109  86 131  86 139  87 100  87 112  87 130  87 138  88 99  88 111  88 132  88 140  89 121  89 125  90 122  90 127  91 123  91 126  92 124  92 128  93 113  93 133  94 114  94 134  95 115  95 135  96 116  96 136  97 101  98 102  99 103  100 104  105 106  105 107  105 129  106 108  106 109  107 130  107 141  108 111  108 141  </DataArray>
<DataArray  type="UInt32"  Name="offsets"  format="ascii">2 4 6 8 10 12 14 16 18 20 22 24 26 28 30 32 34 36 38 40 42 44 46 48 50 52 54 56 58 60 62 64 66 68 70 72 74 76 78 80 82 84 86 88 90 92 94 96 98 100 102 104 106 108 110 112 114 116 118 120 122 124 126 128 130 132 134 136 138 140 142 144 146 148 150 152 154 156 158 160 162 164 166 168 170 172 174 176 178 180 182 184 186 188 190 192 194 196 198 200 202 204 206 208 210 212 214 216 218 220 222 224 226 228 230 232 234 236 238 240 242 244 246 248 250 252 254 256 258 260 262 264 266 268 270 272 274 276 278 280 282 284 286 288 290 292 294 296 298 300 302 304 306 308 310 312 314 316 318 320 322 324 326 328 330 332 334 336 338 340 342 344 346 348 350 352 354 356 358 360 362 364 366 368 370 372 374 376 378 380 382 384 386 388 390 392 394 396 398 400 402 404 406 408 410 412 414 416 418 420 422 424 426 428 430 432 434 436 438 440 442 444 446 448 450 452 454 456 458 460 462 464 466 468 470 472 474 476 478 480 482 484 486 488 490 492 494 496 498 500 502 504 506 508 510 512 514 516 518 520 522 524 526 528 530 532 534 536 538 540 542 544 546 548 550 552 554 556 558 560 562 564 566 568 570 572 574 576 578 580 582 584 586 588 590 592 594 596 598 600 602 604 606 608 610 612 614 616 618 620 622 624 626 628 630 632 634 636 638 640 642 644 646 648 650 652 654 656 658 660 662 664 666 668 670 672 674 676 678 680 682 684 686 688 690 692 694 696 698 700 702 704 706 708 710 712 714 716 718 720 722 724 726 728 730 732 734 736 738 740 742 744 746 748 750 752 754 756 758 760 762 764 766 </DataArray>
<DataArray  type="UInt8"  Name="types"  format="ascii">3 3 3 3 3 3 3 3 3 3 3 3 3 3 3 3 3 3 3 3 3 3 3 3 3 3 3 3 3 3 3 3 3 3 3 3 3 3 3 3 3 3 3 3 3 3 3 3 3 3 3 3 3 3 3 3 3 3 3 3 3 3 3 3 3 3 3 3 3 3 3 3 3 3 3 3 3 3 3 3 3 3 3 3 3 3 3 3 3 3 3 3 3 3 3 3 3 3 3 3 3 3 3 3 3 3 3 3 3 3 3 3 3 3 3 3 3 3 3 3 3 3 3 3 3 3 3 3 3 3 3 3 3 3 3 3 3 3 3 3 3 3 3 3 3 3 3 3 3 3 3 3 3 3 3 3 3 3 3 3 3 3 3 3 3 3 3 3 3 3 3 3 3 3 3 3 3 3 3 3 3 3 3 3 3 3 3 3 3 3 3 3 3 3 3 3 3 3 3 3 3 3 3 3 3 3 3 3 3 3 3 3 3 3 3 3 3 3 3 3 3 3 3 3 3 3 3 3 3 3 3 3 3 3 3 3 3 3 3 3 3 3 3 3 3 3 3 3 3 3 3 3 3 3 3 3 3 3 3 3 3 3 3 3 3 3 3 3 3 3 3 3 3 3 3 3 3 3 3 3 3 3 3 3 3 3 3 3 3 3 3 3 3 3 3 3 3 3 3 3 3 3 3 3 3 3 3 3 3 3 3 3 3 3 3 3 3 3 3 3 3 3 3 3 3 3 3 3 3 3 3 3 3 3 3 3 3 3 3 3 3 3 3 3 3 3 3 3 3 3 3 3 3 3 3 3 3 3 3 3 3 3 3 3 3 3 3 3 3 3 3 3 3 3 3 3 3 3 3 3 3 3 3 </DataArray>
</Cells>
<CellData  Scalars="f">
<DataArray  type="Float64"  Name="f"  format="ascii">1 4 18446744073709551615 1 2 18446744073709551615 2 3 18446744073709551615 3 4 18446744073709551615 1 18446744073709551615 18446744073709551615 1 18446744073709551615 18446744073709551615 1 18446744073709551615 18446744073709551615 1 18446744073709551615 18446744073709551615 1 18446744073709551615 18446744073709551615 1 18446744073709551615 18446744073709551615 1 18446744073709551615 18446744073709551615 1 18446744073709551615 18446744073709551615 18446744073709551615 18446744073709551615 2 18446744073709551615 18446744073709551615 2 18446744073709551615 18446744073709551615 2 18446744073709551615 18446744073709551615 2 18446744073709551615 18446744073709551615 2 18446744073709551615 18446744073709551615 2 18446744073709551615 18446744073709551615 2 18446744073709551615 18446744073709551615 2 18446744073709551615 18446744073709551615 18446744073709551615 18446744073709551615 3 18446744073709551615 18446744073709551615 3 18446744073709551615 18446744073709551615 3 18446744073709551615 18446744073709551615 3 18446744073709551615 18446744073709551615 3 18446744073709551615 18446744073709551615 3 18446744073709551615 18446744073709551615 3 18446744073709551615 18446744073709551615 3 18446744073709551615 18446744073709551615 18446744073709551615 18446744073709551615 4 18446744073709551615 18446744073709551615 4 18446744073709551615 18446744073709551615 4 18446744073709551615 18446744073709551615 4 18446744073709551615 18446744073709551615 4 18446744073709551615 18446744073709551615 4 18446744073709551615 18446744073709551615 4 18446744073709551615 18446744073709551615 4 18446744073709551615 18446744073709551615 18446744073709551615 18446744073709551615 18446744073709551615 18446744073709551615 18446744073709551615 18446744073709551615 18446744073709551615 18446744073709551615 18446744073709551615 18446744073709551615 18446744073709551615 18446744073709551615 18446744073709551615 18446744073709551615 18446744073709551615 18446744073709551615 18446744073709551615 18446744073709551615 18446744073709551615 18446744073709551615 18446744073709551615 18446744073709551615 18446744073709551615 18446744073709551615 18446744073709551615 18446744073709551615 18446744073709551615 18446744073709551615 18446744073709551615 18446744073709551615 18446744073709551615 18446744073709551615 18446744073709551615 18446744073709551615 18446744073709551615 18446744073709551615 18446744073709551615 18446744073709551615 18446744073709551615 18446744073709551615 18446744073709551615 18446744073709551615 18446744073709551615 18446744073709551615 18446744073709551615 18446744073709551615 18446744073709551615 18446744073709551615 18446744073709551615 18446744073709551615 18446744073709551615 18446744073709551615 18446744073709551615 18446744073709551615 18446744073709551615 18446744073709551615 18446744073709551615 18446744073709551615 18446744073709551615 18446744073709551615 18446744073709551615 18446744073709551615 18446744073709551615 18446744073709551615 18446744073709551615 18446744073709551615 18446744073709551615 18446744073709551615 18446744073709551615 18446744073709551615 18446744073709551615 18446744073709551615 18446744073709551615 18446744073709551615 18446744073709551615 18446744073709551615 18446744073709551615 18446744073709551615 18446744073709551615 18446744073709551615 18446744073709551615 18446744073709551615 18446744073709551615 18446744073709551615 18446744073709551615 18446744073709551615 18446744073709551615 18446744073709551615 18446744073709551615 18446744073709551615 18446744073709551615 18446744073709551615 18446744073709551615 18446744073709551615 18446744073709551615 18446744073709551615 18446744073709551615 18446744073709551615 18446744073709551615 18446744073709551615 18446744073709551615 18446744073709551615 18446744073709551615 18446744073709551615 18446744073709551615 18446744073709551615 18446744073709551615 18446744073709551615 18446744073709551615 18446744073709551615 18446744073709551615 18446744073709551615 18446744073709551615 18446744073709551615 18446744073709551615 18446744073709551615 18446744073709551615 18446744073709551615 18446744073709551615 18446744073709551615 18446744073709551615 18446744073709551615 18446744073709551615 18446744073709551615 18446744073709551615 18446744073709551615 18446744073709551615 18446744073709551615 18446744073709551615 18446744073709551615 18446744073709551615 18446744073709551615 18446744073709551615 18446744073709551615 18446744073709551615 18446744073709551615 18446744073709551615 18446744073709551615 18446744073709551615 18446744073709551615 18446744073709551615 18446744073709551615 18446744073709551615 18446744073709551615 18446744073709551615 18446744073709551615 18446744073709551615 18446744073709551615 18446744073709551615 18446744073709551615 18446744073709551615 18446744073709551615 18446744073709551615 18446744073709551615 18446744073709551615 18446744073709551615 18446744073709551615 18446744073709551615 18446744073709551615 18446744073709551615 18446744073709551615 18446744073709551615 18446744073709551615 18446744073709551615 18446744073709551615 18446744073709551615 18446744073709551615 18446744073709551615 18446744073709551615 18446744073709551615 18446744073709551615 18446744073709551615 18446744073709551615 18446744073709551615 18446744073709551615 18446744073709551615 18446744073709551615 18446744073709551615 18446744073709551615 18446744073709551615 18446744073709551615 18446744073709551615 18446744073709551615 18446744073709551615 18446744073709551615 18446744073709551615 18446744073709551615 18446744073709551615 18446744073709551615 18446744073709551615 18446744073709551615 18446744073709551615 18446744073709551615 18446744073709551615 18446744073709551615 18446744073709551615 18446744073709551615 18446744073709551615 18446744073709551615 18446744073709551615 18446744073709551615 18446744073709551615 18446744073709551615 18446744073709551615 18446744073709551615 18446744073709551615 18446744073709551615 18446744073709551615 18446744073709551615 18446744073709551615 18446744073709551615 18446744073709551615 18446744073709551615 18446744073709551615 18446744073709551615 18446744073709551615 18446744073709551615 18446744073709551615 18446744073709551615 18446744073709551615 18446744073709551615 18446744073709551615 18446744073709551615 18446744073709551615 18446744073709551615 18446744073709551615 18446744073709551615 18446744073709551615 18446744073709551615 18446744073709551615 18446744073709551615 18446744073709551615 18446744073709551615 18446744073709551615 18446744073709551615 18446744073709551615 18446744073709551615 18446744073709551615 18446744073709551615 18446744073709551615 18446744073709551615 18446744073709551615 18446744073709551615 18446744073709551615 18446744073709551615 18446744073709551615 18446744073709551615 18446744073709551615 18446744073709551615 18446744073709551615 18446744073709551615 18446744073709551615 18446744073709551615 18446744073709551615 18446744073709551615 18446744073709551615 18446744073709551615 18446744073709551615 18446744073709551615 18446744073709551615 18446744073709551615 18446744073709551615 18446744073709551615 18446744073709551615 18446744073709551615 18446744073709551615 18446744073709551615 18446744073709551615 18446744073709551615 </DataArray>
</CellData>
</Piece>
</UnstructuredGrid>
</VTKFile>