<?xml version="1.0"?>
<VTKFile type="UnstructuredGrid"  version="0.1"  >
<UnstructuredGrid>
<Piece  NumberOfPoints="142" NumberOfCells="242">
<Points>
<DataArray  type="Float64"  NumberOfComponents="3"  format="ascii">0 0 0  0 1 0  1 1 0  1 0 0  0 0.09999999999981467 0  0 0.1999999999995579 0  0 0.2999999999992664 0  0 0.3999999999989749 0  0 0.4999999999986943 0  0 0.5999999999989468 0  0 0.69999999999921 0  0 0.7999999999994734 0  0 0.8999999999997368 0  0.09999999999981467 1 0  0.1999999999995579 1 0  0.2999999999992664 1 0  0.3999999999989749 1 0  0.4999999999986943 1 0  0.5999999999989468 1 0  0.69999999999921 1 0  0.7999999999994734 1 0  0.8999999999997368 1 0  1 0.8999999999995836 0  1 0.7999999999999998 0  1 0.7000000000006934 0  1 0.6000000000013869 0  1 0.5000000000020587 0  1 0.4000000000016644 0  1 0.3000000000012483 0  1 0.2000000000008322 0  1 0.100000000000416 0  0.8999999999995836 0 0  0.7999999999999998 0 0  0.7000000000006934 0 0  0.6000000000013869 0 0  0.5000000000020587 0 0  0.4000000000016644 0 0  0.3000000000012483 0 0  0.2000000000008322 0 0  0.100000000000416 0 0  0.5 0.5 0  0.7071428571428401 0.7071428571428752 0  0.7071428571428829 0.292857142857163 0  0.2928571428571245 0.7071428571428393 0  0.2928571428571638 0.2928571428571166 0  0.7848800793697626 0.4969996804011801 0  0.4969996804011856 0.2151199206302399 0  0.5030003195988224 0.7848800793697341 0  0.2151199206302686 0.5030003195988173 0  0.8294973544973363 0.829497354497414 0  0.8294973544974497 0.1705026455026733 0  0.1705026455025708 0.8294973544972866 0  0.1705026455027228 0.1705026455025349 0  0.8488660690838694 0.640710112639327 0  0.640710112639334 0.1511339309161314 0  0.8481751902264412 0.3592052746310418 0  0.6407947253690727 0.8481751902263315 0  0.3592898873606543 0.8488660690839257 0  0.3592052746310573 0.1518248097735569 0  0.1511339309160751 0.359289887360648 0  0.1518248097736666 0.6407947253690573 0  0.6401567944250817 0.5669860627177818 0  0.5720108710844389 0.3639360530549316 0  0.4330139372822172 0.640156794425081 0  0.3564328676413127 0.4317691437943251 0  0.6595278631988934 0.4315872180136938 0  0.5586987495249733 0.6661733647266972 0  0.4345313304880075 0.3457376867591684 0  0.3338266352733065 0.5586987495249669 0  0.8903241140725424 0.4604652914507276 0  0.4604652914507329 0.1096758859274591 0  0.5395347085494732 0.8903241140724611 0  0.1096758859275405 0.5395347085494682 0  0.9023348642130153 0.7390736031440464 0  0.7390736031440744 0.09766513578698902 0  0.2609263968558969 0.9023348642130203 0  0.09766513578698408 0.2609263968558689 0  0.740304764090288 0.9005590740427145 0  0.9005590740428264 0.2596952359098 0  0.09944092595728007 0.7403047640902634 0  0.2596952359098248 0.09944092595716837 0  0.7452829717179744 0.6041206249238611 0  0.6077794250775408 0.2557478785835854 0  0.3958793750761198 0.7452829717180284 0  0.2547170282819742 0.3958793750761136 0  0.7464813642542797 0.3934068318485568 0  0.6053789140938055 0.7473120519452107 0  0.3937748459078564 0.2541768294904769 0  0.2526879480547886 0.6053789140937944 0  0.9001218934945733 0.9001218934945729 0  0.9001218934945807 0.09987810650541903 0  0.09987810650543673 0.9001218934945625 0  0.09987810650542965 0.09987810650542893 0  0.9167792112837924 0.5690795758194069 0  0.5690795758194102 0.08322078871620855 0  0.4309204241808255 0.9167792112837907 0  0.08322078871621014 0.4309204241808227 0  0.7207306519691901 0.793413392032122 0  0.7932749440837036 0.2790669723545777 0  0.206586607967867 0.7207306519691723 0  0.2791283080311434 0.2068347548737451 0  0.8012652966217981 0.7277938243381868 0  0.7277938243383418 0.1987347033782311 0  0.2722061756617718 0.8012652966217936 0  0.1987347033782355 0.2722061756616174 0  0.5893512154037218 0.4871850116388043 0  0.5411241892242508 0.5803268259738074 0  0.491135371445602 0.4096773265454885 0  0.4268010624582881 0.5549180143374142 0  0.6400172180368688 0.65023210348845 0  0.6543708124739787 0.3538586779068587 0  0.3480475726622802 0.6424993192059415 0  0.3546273889992878 0.3470158314432938 0  0.9335960289161355 0.6497726583209722 0  0.6497726583209799 0.0664039710838658 0  0.3502273416791237 0.9335960289161473 0  0.06640397108385386 0.3502273416791162 0  0.6441268396013982 0.9278116756683015 0  0.07218832433169743 0.6441268396013892 0  0.927811675668362 0.3558731603988964 0  0.3558731603989055 0.07218832433163684 0  0.9200285942774967 0.8201017201097204 0  0.8201017201097339 0.07997140572249425 0  0.1798982798902575 0.9200285942774354 0  0.07997140572255566 0.1798982798902443 0  0.8201017201098527 0.9200285942777351 0  0.07997140572227604 0.8201017201098352 0  0.9200285942778361 0.1798982798901033 0  0.1798982798901216 0.07997140572217544 0  0.6985090438889192 0.5077206954042229 0  0.5086892385809004 0.3021029570484977 0  0.4954154029833465 0.7122390165456542 0  0.2872737923209753 0.4952375753422132 0  0.8372264891055882 0.5542750570469005 0  0.559069788707486 0.1668753040725713 0  0.4457249429531791 0.8372264891055882 0  0.1627735108944137 0.4457249429531739 0  0.8174651869807564 0.4275192695828766 0  0.427611273097708 0.1826993614554332 0  0.5721771669027933 0.8176728589034343 0  0.1823271410965661 0.5721771669027843 0  0.4325419913433259 0.461024257085337 0  </DataArray>
</Points>
<Cells>
<DataArray  type="UInt32"  Name="connectivity"  format="ascii">68 108 141  1 13 91  0 4 92  2 22 89  3 31 90  1 12 91  0 39 92  2 21 89  3 30 90  64 68 141  65 85 129  66 86 131  67 87 130  68 88 132  62 105 107  62 65 105  63 106 108  63 66 106  45 85 129  46 87 130  47 86 131  48 88 132  54 82 102  53 81 101  59 84 104  57 83 103  42 82 102  41 81 101  44 84 104  43 83 103  56 86 97  55 85 98  60 88 99  58 87 100  64 67 141  26 27 69  35 36 70  17 18 71  8 9 72  18 71 117  9 72 118  27 69 119  36 70 120  63 66 131  64 68 132  41 86 97  42 85 98  43 88 99  44 87 100  62 65 110  64 67 112  67 107 141  40 105 107  40 106 108  56 71 117  60 72 118  55 69 119  58 70 120  23 24 73  32 33 74  14 15 75  5 6 76  19 20 77  10 11 79  28 29 78  37 38 80  26 69 93  35 70 94  17 71 95  8 72 96  56 77 97  55 78 98  60 79 99  58 80 100  45 69 133  46 70 134  47 71 135  48 72 136  61 81 109  62 82 110  63 83 111  64 84 112  49 73 101  50 74 102  51 75 103  52 76 104  41 81 109  42 82 110  43 83 111  44 84 112  61 106 109  66 106 109  63 108 111  68 108 111  25 26 93  34 35 94  16 17 95  7 8 96  45 85 137  47 86 139  46 87 138  48 88 140  23 73 121  32 74 122  14 75 123  5 76 124  20 77 125  11 79 126  29 78 127  38 80 128  54 74 102  53 73 101  59 76 104  57 75 103  49 77 97  50 78 98  51 79 99  52 80 100  13 14 123  22 23 121  4 5 124  31 32 122  20 21 125  11 12 126  29 30 127  38 39 128  69 93 133  70 94 134  71 95 135  72 96 136  13 91 123  4 92 124  22 89 121  31 90 122  21 89 125  12 91 126  30 90 127  39 92 128  49 97 101  50 98 102  51 99 103  52 100 104  61 81 129  62 82 130  63 83 131  64 84 132  45 69 137  46 70 138  55 69 137  58 70 138  47 71 139  48 72 140  56 71 139  60 72 140  24 73 113  33 74 114  55 78 119  53 73 113  54 74 114  56 77 117  58 80 120  60 79 118  28 78 119  19 77 117  37 80 120  10 79 118  15 75 115  6 76 116  57 75 115  59 76 116  45 81 129  46 82 130  47 83 131  48 84 132  61 105 129  65 105 129  62 107 130  67 107 130  49 73 121  50 74 122  49 77 125  51 75 123  50 78 127  52 76 124  51 79 126  52 80 128  53 81 133  45 81 133  54 82 134  46 82 134  47 83 135  57 83 135  59 84 136  48 84 136  65 85 110  42 85 110  66 86 109  41 86 109  67 87 112  68 88 111  44 87 112  43 88 111  41 97 101  42 98 102  43 99 103  44 100 104  49 89 121  50 90 122  49 89 125  50 90 127  51 91 123  51 91 126  52 92 124  52 92 128  40 105 106  61 105 106  25 93 113  34 94 114  53 93 113  54 94 114  16 95 115  7 96 116  57 95 115  59 96 116  24 25 113  33 34 114  15 16 115  6 7 116  18 19 117  9 10 118  27 28 119  36 37 120  55 85 137  56 86 139  58 87 138  60 88 140  53 93 133  54 94 134  57 95 135  59 96 136  40 108 141  40 107 141  </DataArray>
<DataArray  type="UInt32"  Name="offsets"  format="ascii">3 6 9 12 15 18 21 24 27 30 33 36 39 42 45 48 51 54 57 60 63 66 69 72 75 78 81 84 87 90 93 96 99 102 105 108 111 114 117 120 123 126 129 132 135 138 141 144 147 150 153 156 159 162 165 168 171 174 177 180 183 186 189 192 195 198 201 204 207 210 213 216 219 222 225 228 231 234 237 240 243 246 249 252 255 258 261 264 267 270 273 276 279 282 285 288 291 294 297 300 303 306 309 312 315 318 321 324 327 330 333 336 339 342 345 348 351 354 357 360 363 366 369 372 375 378 381 384 387 390 393 396 399 402 405 408 411 414 417 420 423 426 429 432 435 438 441 444 447 450 453 456 459 462 465 468 471 474 477 480 483 486 489 492 495 498 501 504 507 510 513 516 519 522 525 528 531 534 537 540 543 546 549 552 555 558 561 564 567 570 573 576 579 582 585 588 591 594 597 600 603 606 609 612 615 618 621 624 627 630 633 636 639 642 645 648 651 654 657 660 663 666 669 672 675 678 681 684 687 690 693 696 699 702 705 708 711 714 717 720 723 726 </DataArray>
<DataArray  type="UInt8"  Name="types"  format="ascii">5 5 5 5 5 5 5 5 5 5 5 5 5 5 5 5 5 5 5 5 5 5 5 5 5 5 5 5 5 5 5 5 5 5 5 5 5 5 5 5 5 5 5 5 5 5 5 5 5 5 5 5 5 5 5 5 5 5 5 5 5 5 5 5 5 5 5 5 5 5 5 5 5 5 5 5 5 5 5 5 5 5 5 5 5 5 5 5 5 5 5 5 5 5 5 5 5 5 5 5 5 5 5 5 5 5 5 5 5 5 5 5 5 5 5 5 5 5 5 5 5 5 5 5 5 5 5 5 5 5 5 5 5 5 5 5 5 5 5 5 5 5 5 5 5 5 5 5 5 5 5 5 5 5 5 5 5 5 5 5 5 5 5 5 5 5 5 5 5 5 5 5 5 5 5 5 5 5 5 5 5 5 5 5 5 5 5 5 5 5 5 5 5 5 5 5 5 5 5 5 5 5 5 5 5 5 5 5 5 5 5 5 5 5 5 5 5 5 5 5 5 5 5 5 5 5 5 5 5 5 5 5 5 5 5 5 5 5 5 5 5 5 </DataArray>
</Cells>
<PointData  Vectors="f_16"> 
<DataArray  type="Float64"  Name="f_16"  NumberOfComponents="3" format="ascii">5.0000000000000000e-01 5.0000000000000000e-01 5.0000000000000000e-01  4.9999997979890620e-01 4.5909257865282738e-01 4.9999999999999983e-01  5.3883407556820662e-01 4.5909259885392240e-01 4.9999999999999917e-01  5.3883409576930397e-01 5.0000002020109335e-01 4.9999999999999911e-01  4.9999999797989392e-01 4.9590925786529250e-01 5.0000000000000067e-01  4.9999999595978517e-01 4.9181851573058394e-01 5.0000000000000167e-01  4.9999999393967820e-01 4.8772777359588010e-01 5.0000000000000200e-01  4.9999999191956485e-01 4.8363703146117215e-01 5.0000000000000200e-01  4.9999998989945321e-01 4.7954628932646587e-01 5.0000000000000000e-01  4.9999998787934824e-01 4.7545554719173944e-01 5.0000000000000067e-01  4.9999998585923477e-01 4.7136480505701073e-01 5.0000000000000089e-01  4.9999998383912858e-01 4.6727406292228379e-01 5.0000000000000122e-01  4.9999998181901328e-01 4.6318332078755370e-01 4.9999999999999994e-01  5.0388338937582755e-01 4.5909258067293440e-01 5.0000000000000033e-01  5.0776679895274912e-01 4.5909258269304881e-01 5.0000000000000155e-01  5.1165020852966725e-01 4.5909258471315717e-01 5.0000000000000167e-01  5.1553361810658938e-01 4.5909258673326875e-01 5.0000000000000133e-01  5.1941702768350650e-01 4.5909258875337478e-01 4.9999999999999933e-01  5.2330043726044417e-01 4.5909259077348352e-01 5.0000000000000011e-01  5.2718384683738750e-01 4.5909259279359543e-01 5.0000000000000011e-01  5.3106725641432584e-01 4.5909259481370279e-01 5.0000000000000056e-01  5.3495066599126861e-01 4.5909259683381221e-01 4.9999999999999906e-01  5.3883407758831858e-01 4.6318334098865865e-01 4.9999999999999983e-01  5.3883407960842833e-01 4.6727408312335689e-01 5.0000000000000089e-01  5.3883408162854007e-01 4.7136482525804740e-01 5.0000000000000111e-01  5.3883408364864538e-01 4.7545556739273331e-01 5.0000000000000078e-01  5.3883408566875268e-01 4.7954630952742300e-01 4.9999999999999878e-01  5.3883408768886742e-01 4.8363705166215792e-01 4.9999999999999967e-01  5.3883408970897395e-01 4.8772779379689107e-01 4.9999999999999983e-01  5.3883409172908747e-01 4.9181853593162622e-01 5.0000000000000033e-01  5.3883409374919111e-01 4.9590927806635782e-01 4.9999999999999906e-01  5.3495068619235586e-01 5.0000001818098072e-01 4.9999999999999967e-01  5.3106727661544306e-01 5.0000001616087597e-01 5.0000000000000100e-01  5.2718386703853870e-01 5.0000001414076500e-01 5.0000000000000133e-01  5.2330045746163845e-01 5.0000001212065770e-01 5.0000000000000122e-01  5.1941704788473186e-01 5.0000001010054496e-01 4.9999999999999939e-01  5.1553363830778398e-01 5.0000000808043543e-01 5.0000000000000056e-01  5.1165022873084132e-01 5.0000000606032879e-01 5.0000000000000078e-01  5.0776681915389288e-01 5.0000000404021772e-01 5.0000000000000133e-01  5.0388340957694910e-01 5.0000000202010808e-01 4.9999999999999989e-01  5.1941703778410808e-01 4.7954629942696314e-01 5.0000000000000322e-01  5.2746123915180843e-01 4.7107262347527623e-01 5.0000000000000344e-01  5.2746124752083390e-01 4.8801998374767480e-01 5.0000000000000311e-01  5.1137282804738182e-01 4.7107261510625265e-01 5.0000000000000411e-01  5.1137283641641218e-01 4.8801997537865338e-01 5.0000000000000433e-01  5.3048009812972940e-01 4.7966904051985776e-01 5.0000000000000300e-01  5.1930052884035871e-01 4.9120000880654785e-01 5.0000000000000366e-01  5.1953354672785701e-01 4.6789259004738026e-01 5.0000000000000344e-01  5.0835397743849087e-01 4.7942355833406974e-01 5.0000000000000433e-01  5.3221276294818243e-01 4.6606741896996706e-01 5.0000000000000322e-01  5.3221277626060126e-01 4.9302519319637017e-01 5.0000000000000311e-01  5.0662129930761601e-01 4.6606740565755717e-01 5.0000000000000389e-01  5.0662131262003851e-01 4.9302517988396333e-01 5.0000000000000400e-01  5.3296493327907113e-01 4.7379021860889503e-01 5.0000000000000366e-01  5.2488139482153273e-01 4.9381751355120734e-01 5.0000000000000377e-01  5.3293810931006302e-01 4.8530585561460987e-01 5.0000000000000222e-01  5.2488466659938260e-01 4.6530335306195014e-01 5.0000000000000255e-01  5.1395268074668843e-01 4.6527508530271944e-01 5.0000000000000400e-01  5.1394940896883867e-01 4.9378924579198008e-01 5.0000000000000311e-01  5.0586914228914215e-01 4.8530238024503375e-01 5.0000000000000466e-01  5.0589596625815625e-01 4.7378674323931158e-01 5.0000000000000333e-01  5.2485989880833572e-01 4.7680607516629930e-01 5.0000000000000311e-01  5.2221351759687296e-01 4.8511232608950194e-01 5.0000000000000266e-01  5.1681569177799702e-01 4.7381284502955578e-01 5.0000000000000344e-01  5.1384173939510780e-01 4.8233744491043523e-01 5.0000000000000433e-01  5.2561215948345685e-01 4.8234489314784784e-01 5.0000000000000100e-01  5.2169654728781156e-01 4.7274857676518667e-01 5.0000000000000189e-01  5.1687462431865838e-01 4.8585677155015544e-01 5.0000000000000333e-01  5.1296384423822683e-01 4.7714508159071062e-01 5.0000000000000355e-01  5.3457492260970951e-01 4.8116357029239565e-01 5.0000000000000011e-01  5.1788175101106615e-01 4.9551345162464328e-01 5.0000000000000089e-01  5.2095232455715212e-01 4.6357914722928245e-01 5.0000000000000067e-01  5.0425915295850432e-01 4.7792902856151381e-01 5.0000000000000133e-01  5.3504134360273503e-01 4.6976642293776505e-01 5.0000000000000133e-01  5.2870125311211968e-01 4.9600478606952836e-01 5.0000000000000144e-01  5.1013282245609037e-01 4.6308781278439520e-01 5.0000000000000200e-01  5.0379273196547936e-01 4.8932617591615973e-01 5.0000000000000222e-01  5.2874904791487476e-01 4.6316046546508144e-01 5.0000000000000033e-01  5.3497239208116554e-01 4.8937655575506167e-01 5.0000000000000000e-01  5.0386168348704752e-01 4.6971604309885479e-01 5.0000000000000100e-01  5.1008502765334052e-01 4.9593213338884418e-01 5.0000000000000100e-01  5.2894237809502942e-01 4.7528699810725439e-01 5.0000000000000111e-01  5.2360255923368793e-01 4.8953802604994445e-01 5.0000000000000111e-01  5.1537360250926756e-01 4.6951240345025586e-01 5.0000000000000144e-01  5.0989169747318197e-01 4.8380560074666989e-01 5.0000000000000211e-01  5.2898892084220184e-01 4.8390675604845546e-01 5.0000000000000000e-01  5.2350932763011371e-01 4.6942940324257310e-01 5.0000000000000044e-01  5.1529188494288003e-01 4.8960228929402733e-01 5.0000000000000122e-01  5.0981289574519351e-01 4.7523551479104476e-01 5.0000000000000133e-01  5.3495540163256861e-01 4.6317835262245161e-01 5.0000000000000100e-01  5.3495541779836853e-01 4.9591426239727043e-01 5.0000000000000111e-01  5.0387865776984220e-01 4.6317833645664974e-01 5.0000000000000167e-01  5.0387867393564523e-01 4.9591424623147234e-01 5.0000000000000189e-01  5.3560228019426981e-01 4.7672044053182877e-01 5.0000000000000189e-01  5.2209968906657822e-01 4.9659566362717189e-01 5.0000000000000222e-01  5.1673438650164683e-01 4.6249693522675178e-01 5.0000000000000233e-01  5.0323179537394080e-01 4.8237215832208408e-01 5.0000000000000300e-01  5.2798890713463031e-01 4.6754351862920607e-01 5.0000000000000433e-01  5.3080610951247997e-01 4.8858410580283490e-01 5.0000000000000411e-01  5.0802258955893542e-01 4.7051677171535261e-01 5.0000000000000511e-01  5.1083969126772433e-01 4.9153892917184333e-01 5.0000000000000522e-01  5.3111639856340531e-01 4.7022784756036878e-01 5.0000000000000711e-01  5.2826321106001217e-01 4.9187029045483943e-01 5.0000000000000699e-01  5.1057086450821698e-01 4.6722230839909568e-01 5.0000000000000766e-01  5.0771767700482151e-01 4.8886475129357149e-01 5.0000000000000799e-01  5.2288691169907275e-01 4.8007052936040429e-01 5.0000000000000078e-01  5.2101405686418412e-01 4.7626033694212527e-01 5.0000000000000355e-01  5.1907278977448590e-01 4.8324116690809493e-01 5.0000000000000333e-01  5.1657442212400106e-01 4.7729974359621397e-01 5.0000000000000389e-01  5.2485447680385200e-01 4.7340069429819209e-01 5.0000000000000622e-01  5.2541189165192570e-01 4.8552456718452275e-01 5.0000000000000544e-01  5.1351609978985768e-01 4.7371701666491844e-01 5.0000000000000711e-01  5.1377162697672574e-01 4.8580448433287521e-01 5.0000000000000699e-01  5.3625534447065626e-01 4.7341949494585928e-01 5.0000000000000633e-01  5.2523333230008862e-01 4.9728359790186988e-01 5.0000000000000655e-01  5.1360074326814342e-01 4.6180900095206229e-01 5.0000000000000677e-01  5.0257873109756490e-01 4.8567310390807156e-01 5.0000000000000733e-01  5.2501406463385492e-01 4.6204562986468189e-01 5.0000000000000511e-01  5.0280335528846110e-01 4.7365043342969121e-01 5.0000000000000577e-01  5.3603072027975884e-01 4.8544216542422830e-01 5.0000000000000488e-01  5.1382001093438090e-01 4.9704696898924983e-01 5.0000000000000555e-01  5.3572846197372337e-01 4.6645177197352217e-01 5.0000000000000644e-01  5.3184790712381058e-01 4.9672859257734014e-01 5.0000000000000633e-01  5.0698616844441491e-01 4.6236400627659363e-01 5.0000000000000711e-01  5.0310561359450212e-01 4.9264082688041505e-01 5.0000000000000733e-01  5.3184789015373957e-01 4.6236401920939019e-01 5.0000000000000577e-01  5.0310560066167798e-01 4.6645175500344249e-01 5.0000000000000655e-01  5.3572847490654607e-01 4.9264084385049445e-01 5.0000000000000577e-01  5.0698618541448559e-01 4.9672857964454281e-01 5.0000000000000666e-01  5.2712595684959784e-01 4.7923046969707239e-01 5.0000000000000566e-01  5.1975448050506057e-01 4.8764175732187354e-01 5.0000000000000655e-01  5.1923899481704128e-01 4.7086414845820829e-01 5.0000000000000600e-01  5.1115600795867144e-01 4.7974111364177657e-01 5.0000000000000733e-01  5.3251292246156667e-01 4.7732605361204916e-01 5.0000000000000644e-01  5.2171096634533398e-01 4.9317357291769420e-01 5.0000000000000688e-01  5.1730930820852616e-01 4.6575123225128373e-01 5.0000000000000688e-01  5.0632115310665671e-01 4.8176654524187723e-01 5.0000000000000755e-01  5.3174551272293125e-01 4.8251130561883415e-01 5.0000000000000544e-01  5.1660589344078856e-01 4.9252624887930341e-01 5.0000000000000644e-01  5.2221996637862933e-01 4.6655112339530008e-01 5.0000000000000588e-01  5.0708049810009170e-01 4.7659371123148908e-01 5.0000000000000677e-01  5.1679736780288510e-01 4.8114069520197139e-01 5.0000000000000788e-01  </DataArray> 
</PointData> 
</Piece>
</UnstructuredGrid>
</VTKFile>