<?xml version="1.0"?>
<VTKFile type="UnstructuredGrid"  version="0.1"  >
<UnstructuredGrid>
<Piece  NumberOfPoints="368" NumberOfCells="1207">
<Points>
<DataArray  type="Float64"  NumberOfComponents="3"  format="ascii">0.9807852804032303 0.1950903220161286 1.006853791166158  1.52814208573423 0.1613137918978927 0.5102072734156454  1.450335244017662 0.3993844666440129 0.9479068445177696  1.491481428815471 -0.04246098436356954 1.192857642755401  0.3505506524007391 1.439119323266543 2.229124975212371  -0.1879604925798806 1.981487507310104 2.257437501874302  0.1821743391565473 1.595435930750562 2.5903667231274  0.2740135347110018 1.973012022427457 2.410692233486728  -1.302506330247836 0.7314384720123622 1.10539181245277  -1.415649600564344 1.412463744774179 1.124111047366489  -1.111645100464135 1.018766509541888 1.580900689761718  -0.9726455044974873 1.137273922375865 1.073924182966422  1.962734657692562 0.3783613699999913 1.846559366820983  1.91926574085063 0.5296409455353088 2.339697577168066  1.745217422811993 0.9572087840349652 2.004132439917261  1.399310647126385 0.486110187038753 1.965101941806065  1.240992448073932 -0.7277991002123511 1.504890969845327  1.451841918673485 -0.4160870690660197 0.8124817833527678  1.957241061154269 -0.4044530916512845 1.130662055155801  -0.5131581223052615 1.382860631703773 1.129235146161471  0.2171273278454561 1.452231135633227 0.7206241776988639  -0.5469942367349582 1.360514599575593 0.5403398490353799  -0.06997646010378458 1.993107920242412 0.6253820182263208  -1.514674703827641 0.3918295191835702 2.521219115594658  -1.188860511984403 1.060117160508811 2.563049150981436  -0.8598386698837637 0.5024954593186663 2.384476326122496  -1.36936675165574 0.5445791180649255 2.094601113017113  1.57296018672271 -0.3603518114606051 0.4072833139415248  2 3.927989171219834e-15 0.7844257188377417  0.6305366219362482 1.461672021701259 2.573137157518678  1.13378064835715 1.644358907156259 2.455031091878781  0.9318504505456354 1.758771734451193 3  1.014116663803043 1.091301493651112 2.474767832486639  -0.08925624373007968 -0.9912090272966354 1.19456677684017  0.6612847082440414 -1.340114905463987 1.108893916461269  0.3106111190640441 -0.9457424297310684 0.7462197467252456  0.3402362675669802 -0.9367557391813277 1.488714204061065  0.9545290653659886 -0.2816454632327977 0.6694471130563237  1.285895848641168 -0.9157810167207568 0.4484794291144769  1.191933442830757 -0.8743164676129442 0.903733845483468  1.339634282624336 -0.79644568038027 2.547452680787598  1.470858699327835 -0.1081696211018733 2.295100196600393  1.813305601459702 -0.8298247613866921 2.479328878025894  1.805722603473817 -0.8440115527851468 2.078615753071282  -1.438480770485098 -0.07050119218872986 2.438185635059182  -1.344567555190213 -0.6983284766763056 2.512258555473228  -1.919418154960577 -0.5291385035500061 3  -1.970162024484521 -0.3029500494299536 2.400428960428948  -1.368987970497773 -1.451329246427844 1.001457618045887  -0.4857392175468291 -1.371645797971567 0.9777955730243429  -1.174791349590177 -0.9094291444928995 0.8802318284181406  -0.9375070007058002 -1.21441520490972 1.304121182405259  -0.1244862568658107 -0.9877391738626058 1.721971119438714  0.2683758495222019 -1.490673620404064 1.475667784107566  -0.4179722159358051 1.953140079637284 3  0.04335340489247286 1.995730062311829 3  1.57048552046347 -1.223795630489437 2.393264369397446  1.423425623937245 -1.402988632879244 3  1.221813408076458 -1.572112288356507 2.408745073734611  0.9802837104947404 1.015623498320988 1.932926185769896  1.323841507958512 0.4889974985894576 2.488428520580235  0.9827995192597104 0.1746394117049448 2.234570310665951  0.9025541663092692 0.4225803863622857 3  0.9955658339392071 -0.04502084354218341 3  -1.126481124092755 -0.9473283376278889 2.074233125962432  -1.664006297246322 -1.10914411354164 1.875888952633512  -1.294582432735519 -0.820629184485212 1.551364336100787  -1.312762776967178 -1.497472070268641 1.943469646961802  -0.2308620053190963 -1.551539094294586 1.717794458136412  -0.04369448314686741 -1.9956964690359 2.079055695557334  0.1466855526147347 -1.464880016853866 2.2297974104337  -0.4597234839101871 -1.940474970960854 2.365577208844509  -1.493079834035256 -0.02565043060049582 0.4708275303802578  -1.392669400495818 0.5227178203765839 0.5650798974098937  -1.94049435788352 0.4596595737911281 0  -1.973204015961851 0.2720641916429692 0.585554881990308  -1.988366544844581 0.1181164523892848 1.985795232067481  -1.43886208970591 0.5149695080182193 1.569797912004486  -1.441353532002964 -0.002342185071706054 1.686018115577875  -1.973204015961851 0.2720641916429689 1.04935599125763  -1.973811255843297 0.2658987816605045 1.52516799132508  -1.873357740944297 0.6809793394824694 1.315280730417338  -1.9147265257177 0.5446047324439067 2.31369071979841  -1.987182279842392 0.1301404967408785 2.419469863729676  -1.961570560806461 0.3901806440322567 3  -1.423509350166563 1.402886612173637 2.399036955962143  -1.245839619965377 1.552394485835316 3  -1.059542960476273 1.69051866591576 2.444231285366565  0.3959736871192822 0.9167757433455479 2.450393920867024  0.3959736871192823 0.9167757433455478 2.007856029557719  -0.6397769089613947 1.885856361599427 2.410835427716981  1.961570560806461 -0.3901806440322534 2.159984251702897  -0.2165167111830255 -1.978674965265306 1.059418840454187  0.03296184272064258 -1.996753541853206 1.470035164610787  -0.5709179202917503 -1.906744507448919 1.406703321415089  0.5838681171949094 1.350343322085466 0  0.570825861405329 1.906772433206812 0  0.79119686240752 1.833952643622452 0.6008470958115142  0.7166668731150645 -0.6954577754667044 1.218435799795285  0.07503473923697349 -0.9926097232320116 3  0.3606546971297125 -1.571158736162652 2.586357545217903  0.5289722636881395 -0.8456865231038897 3  0.3150958902771757 -1.466099679343499 3  -0.1879604925798814 1.981487507310104 1.593296678584914  -0.6813513412608918 1.373329703138566 1.700767684044582  -0.1633239734712832 1.457514625388545 1.969260541812861  -0.5483980349513318 1.913575839982149 1.925367090229608  -1.704258405401222 1.033837715886708 2.209211779154401  -1.813533168648966 0.8293990131207396 3  -1.57081860896361 1.223389760977683 3  -0.9807852804032304 -0.1950903220161286 3  -1.513914009740071 -0.2001832623755173 3  -1.479465319414609 0.08365730523362372 3  0.5916715253007025 1.35922078290025 1.616040581602528  1.13378064835715 1.644358907156259 1.504736713985521  1.16929327003969 1.615214451734676 2.02523850809439  -0.6020906612473962 -0.7932912835157278 0.5300545641521022  -0.8836349378529436 -0.457975773256652 0.6404787520590902  -1.023790947274213 -0.8542189253140726 0.4828357610848663  -0.602090661247396 -0.793291283515728 0.9479788500445958  0.5177103743712207 0.8517061283556281 1.263147926922086  0.06779261740588695 1.516765368192542 1.298023978812301  0.7551518935731276 1.265137931922017 0.9499300047073247  -1.851925440117959 0.7516321667079673 1.81593851648282  0.9314397286268589 1.185469520867052 0  0.9958825989361937 1.724545838077586 0  0.8505499342917181 1.025759049825131 0.535320499182087  -1.981971206824973 -0.1830494089890101 0.817455436623969  -1.940494357883519 -0.4596595737911316 0  -1.873203290925756 -0.6814884929589626 0.7907882208455987  -0.9408192553364747 -0.3268406500285767 1.845715925535895  -1.441806623388049 -0.4387237814713535 2.034006661436112  0.477219149204427 -1.935167718916343 1.889112662052278  0.7082218437882379 -1.311703949689869 1.769051025256928  0.5360331878793529 1.383554395144927 3  0.5013469316464557 1.927848636129754 3  0.7623538123515461 -1.256718477748746 2.327019461856683  0.3106111190640441 -0.9457424297310684 2.455385688454125  -0.8836349378529437 -0.457975773256652 2.310914062613334  -0.7378844931157909 0.6696040306912336 1.328661823726752  -0.4172064841849357 0.905426576866573 1.472187054373984  -0.5041753880756408 0.8589407292555569 0.7961323206085094  -0.6635133589578226 -1.8786559882124 1.904906559684864  0.7270811635437457 -1.27490888061952 0.5462966671918753  0.08389629142111744 -1.655366426983338 0.4668966795233791  0.791196862407529 -1.833952643622447 0.6178951048582574  0.06424814067857221 -1.462513542149503 0.8252938567089958  -0.5290376234122415 0.8456515876035146 1.875878641463117  -1.033679646116655 1.024275855209801 2.145813876738128  -0.8745423771869449 0.4749867577889477 1.785209320231045  -1.699069305881103 -1.043545838264532 1.110902756623406  -1.85201261692297 -0.751344783295784 1.504740755216978  -1.429512709177072 -0.3562124671024821 1.118349919785871  -1.265262896562099 -0.8023424832773869 0  -1.779307272275357 -0.8934311615113006 0  -1.409798914277625 -0.6679439708724926 0.4913454550270371  -1.428608400118959 -0.5162795287156496 0  -0.08831675386205026 -1.592209287680673 2.5786718043508  0.03653064831300958 -1.996402045182105 2.459535282061257  0.9025541663092692 0.4225803863622857 0  0.6021968632248157 0.7932041258053155 0  0.7876799948882366 0.608928036223086 0.7814979844598379  -0.02829600397680039 0.9972130868589251 1.611363293353632  0.4182078247438861 -1.953068608486724 2.399152904188485  -0.9967945349396865 0.03254563292889093 0.6355050416165856  -1.442538962714197 0.1702583109259658 0.9778387525341716  -0.9916319741441293 0.08496199232257164 1.271933936467721  1.779059765191092 -0.8938942146969457 1.01238676768993  -0.2745715643189928 -1.972957061308251 3  -0.6770621552545111 -1.440335389723069 2.547962905353221  -1.779307272275358 0.8934311615112988 0  -1.875730638840034 0.6731569434453054 0.8174554366239695  -1.669846618080803 1.098217641777694 0.7844479410434644  1.190141907336148 1.598104417287793 0.790786027167462  0.1156090797132645 -1.98861349949821 0  0.3464861608853897 -1.965874091770562 0.4925554439923391  -0.1161671093212523 -1.988558538379005 0.5893077665132739  1.190141907336153 -1.598104417287789 0.4925706892513765  1.190141907336153 -1.598104417287789 0.8563357173958452  1.52494138948322 -1.279291314658712 0.6173649490931152  -1.499159133557997 -0.26036097865709 0  1.189
[...]
<PointData  Vectors="f_20"> 
<DataArray  type="Float64"  Name="f_20"  NumberOfComponents="3" format="ascii">1.1224099204251679e-04 2.1456116882666776e-05 7.1138656042185412e-06  8.2367086988894555e-05 1.0096036618175912e-05 1.6569487167122879e-05  8.0322830308004068e-05 2.2572561449785721e-05 9.2542916108854937e-06  8.4108360981551198e-05 -2.1366832843650629e-06 4.7386832509784959e-06  1.9960599414515641e-05 8.2121788940113985e-05 -1.3179612941768352e-05  -7.1639059280048887e-06 7.1124138110506896e-05 -1.3006970005310799e-05  8.9665577434001150e-06 7.9766895842195234e-05 -1.8695225638260443e-05  9.5917925274092523e-06 7.0544984296378637e-05 -1.5506345862502209e-05  -7.4260004185819833e-05 4.2966250631047954e-05 6.5954083954996754e-06  -5.1052263710145163e-05 5.1705038979360728e-05 7.0602705955899476e-06  -6.2566032832570074e-05 5.6994566737918277e-05 -1.6337672038139077e-06  -5.5083830504784763e-05 6.5198631221531541e-05 7.8494983190174204e-06  6.9903283356447109e-05 1.4059489541022222e-05 -6.4668265598008967e-06  6.7697680681107114e-05 1.8894718724430844e-05 -1.4779842751839326e-05  6.2566729250234184e-05 3.4373364830252412e-05 -8.8352445259611463e-06  7.9344708903030751e-05 2.8018258628898034e-05 -8.6751158657449320e-06  7.6130624821966401e-05 -4.4677239903904792e-05 -9.3077873885143805e-07  8.0555616502626744e-05 -2.1952039158535910e-05 1.0320540993493941e-05  7.0996734697721154e-05 -1.3786594911460550e-05 5.2820948543911767e-06  -3.0111876487291278e-05 8.0025104692885255e-05 6.5756172937761237e-06  1.2514407842380238e-05 8.6055616524765622e-05 1.3157040860981910e-05  -3.2519360068787793e-05 8.0414379277753565e-05 1.6952272398810281e-05  -2.7783663349436989e-06 7.2868490236586644e-05 1.5214696122827839e-05  -7.9833924457048164e-05 2.0836455276075820e-05 -1.7112275880281369e-05  -6.1210813157813252e-05 5.3676108284683973e-05 -1.7970513914838232e-05  -9.8858346222613412e-05 5.7802597113841533e-05 -1.6446123699489245e-05  -7.8969055055015392e-05 3.2568872223777217e-05 -9.7956899810998466e-06  7.8704827358806327e-05 -1.6756370122510216e-05 1.8172150644491512e-05  7.1861572084715533e-05 1.5773458161644448e-06 1.1897108537363094e-05  3.0920832410726132e-05 7.3481867922811823e-05 -1.9069797609576876e-05  4.0154507906806059e-05 5.8062710281930711e-05 -1.6044203170426491e-05  3.3202000871606137e-05 6.2240668629272257e-05 -2.5373250555106047e-05  5.6770753143184144e-05 6.1662215891446573e-05 -1.7476683438490486e-05  -1.1514890531592365e-05 -1.1256338433580445e-04 7.5488241975206737e-06  3.8564658271951365e-05 -7.5555167292475341e-05 5.6935199344258732e-06  3.6461824252247045e-05 -1.0473829599842479e-04 1.4007109298662275e-05  4.0446903555970325e-05 -1.0641742734811544e-04 -5.4499607000114202e-07  1.1123273960786346e-04 -3.2093043228523469e-05 1.3704878443795652e-05  6.7531900856831719e-05 -4.6361542865123655e-05 1.6943283185952176e-05  6.8747085888182049e-05 -4.9410412360516674e-05 8.9456974370241215e-06  7.0686102538197165e-05 -4.2705903686705022e-05 -1.9709997834051999e-05  8.4335098367462421e-05 -6.3346452204010655e-06 -1.4820013048706354e-05  6.5163513076151605e-05 -3.0238783034960095e-05 -1.8025383221609720e-05  6.5181739306327934e-05 -3.0864015849222997e-05 -1.1285348969526739e-05  -8.7061912654085523e-05 -4.7273329560535199e-06 -1.5668496809664337e-05  -7.4745095205336118e-05 -3.7777883909752616e-05 -1.7241223778679889e-05  -6.9356365049374767e-05 -1.9016665066717924e-05 -2.4768915881389461e-05  -7.1026578240987475e-05 -1.0719408959727238e-05 -1.4834683305335217e-05  -4.9871113566190574e-05 -5.1125230111479014e-05 9.7333309499995810e-06  -2.8764344958963518e-05 -8.1669792323519599e-05 1.0818338697644531e-05  -6.8623216559069461e-05 -5.0066994947945949e-05 1.3723033563176808e-05  -5.1298792847117538e-05 -6.5674147890279350e-05 5.1037652629532870e-06  -1.4123444724383938e-05 -1.1238753840910180e-04 -3.7370809318902102e-06  1.5544832609762872e-05 -8.2785973706077723e-05 -1.2499455943144891e-07  -1.5900627671061770e-05 6.9225478461880496e-05 -2.4767776329947361e-05  9.0255338065764149e-07 7.0889179067001642e-05 -2.5532074127502668e-05  5.6798992376846965e-05 -4.4680719745191201e-05 -1.6986050873078272e-05  5.1075499770363685e-05 -5.1894830868337010e-05 -2.6964722373727219e-05  4.4338189183999326e-05 -5.7012097234219329e-05 -1.7517192991245210e-05  6.0822787761683876e-05 6.3678170100038543e-05 -7.8470834359758844e-06  8.1431559093927988e-05 2.9652487926614124e-05 -1.8148320667973006e-05  1.0917167322630049e-04 1.9999567649935818e-05 -1.4263775137163390e-05  1.0062524302551938e-04 4.6728397706356966e-05 -2.7064707831057399e-05  1.1214709348089307e-04 -6.3595307304115624e-06 -2.7609190700308368e-05  -6.5899145488315419e-05 -5.5518312604792386e-05 -9.0185536026943336e-06  -6.0431769912314368e-05 -3.9530755954261241e-05 -6.1951168744770924e-06  -7.0868918189701056e-05 -4.3496240546778072e-05 -3.1489674480138855e-07  -4.7666166346958825e-05 -5.3977717411044357e-05 -7.2882436608675942e-06  -1.1517374868793164e-05 -8.1190879422175463e-05 -3.8099836650680785e-06  -1.4180751322955997e-06 -7.2140998783724696e-05 -1.1375948652875452e-05  8.9418537404966936e-06 -8.6187996269113316e-05 -1.3571467151555855e-05  -1.6616203352025551e-05 -7.0532622013758190e-05 -1.5994488860372369e-05  -8.5373479803278567e-05 1.1294117830776846e-06 1.9567298978168534e-05  -8.0301581051338381e-05 3.1801491524659328e-05 1.7166521641242291e-05  -7.0603651361805206e-05 1.8168525875926185e-05 2.6136624998274619e-05  -7.2308868396078895e-05 1.1720467136039033e-05 1.6588362403521791e-05  -7.1986652151648654e-05 4.4678918961860434e-06 -7.5537735094814721e-06  -7.9167043280338294e-05 2.9503245696547348e-05 -1.4636911874969212e-07  -8.7974394738615786e-05 7.9439425667047029e-07 -2.3202353558675869e-06  -7.1880528105580896e-05 1.1968618809119809e-05 8.5945998236460961e-06  -7.2295241797644161e-05 1.0217218393640453e-05 4.1822595852780736e-07  -6.8503863777292170e-05 2.5924615637417596e-05 4.1522061209307012e-06  -6.9231927710076269e-05 2.0267430205905911e-05 -1.3433688445075734e-05  -7.1765794905040352e-05 4.3766079929957524e-06 -1.5448037232203650e-05  -7.0124588230535090e-05 1.3476524307816650e-05 -2.4685386309933551e-05  -5.1121650331690796e-05 5.0124370468609501e-05 -1.4921058933176552e-05  -4.5170241708452843e-05 5.5493510662206334e-05 -2.5364904872813783e-05  -3.8663397275973429e-05 6.0778836710110641e-05 -1.5766588388475635e-05  4.2617076348870377e-05 1.0467873789223839e-04 -1.8316325787789811e-05  4.4347352204066700e-05 1.0409343745675560e-04 -9.4228310007184538e-06  -2.3571783482210585e-05 6.7294555461274588e-05 -1.5608926843931699e-05  6.9987105188123029e-05 -1.4173872573423301e-05 -1.2340156908155564e-05  -7.8631719849577194e-06 -7.1228340390283427e-05 7.0760224085329223e-06  1.5673101620772759e-06 -7.1916860341659236e-05 -6.0662923972435168e-07  -2.0062456144601568e-05 -6.8644973732324429e-05 1.4951980559193621e-06  3.3679295321504034e-05 7.9383599690493399e-05 2.5447329393467464e-05  2.0163242069628631e-05 7.0312563391872678e-05 2.6093596038486940e-05  2.8860828476589708e-05 6.7235195087236881e-05 1.5429448261768671e-05  8.2947313634558541e-05 -7.6529210688447861e-05 4.6038586279390775e-06  9.2924246707919420e-06 -1.1392689254251553e-04 -2.8581265145126557e-05  1.8208749901263979e-05 -7.9196012184600543e-05 -2.0550565213428030e-05  5.9645819153554174e-05 -9.7889698110016868e-05 -2.7238393446021178e-05  1.7979646251515868e-05 -8.3941213368420034e-05 -2.6314122336920023e-05  -7.1779113251127162e-06 7.1972713469001050e-05 -9.7425756262627365e-07  -3.7684774723960067e-05 7.3854460319762832e-05 -3.6317056359296759e-06  -9.9253859046866892e-06 8.5014827729436367e-05 -8.2913864542272015e-06  -2.0316836239668660e-05 6.9338349549119310e-05 -7.0214061362583159e-06  -6.1353384360773495e-05 3.7761146189678696e-05 -1.1490113772288879e-05  -6.5123823473028095e-05 2.9202318463203470e-05 -2.4567743872137428e-05  -5.6773332934373877e-05 4.3426577369455299e-05 -2.5463407966181880e-05  -1.1107224988375487e-04 -2.2122691787315237e-05 -2.5081856792719657e-05  -8.2412601421329970e-05 -1.0817384643196675e-05 -2.5644989767671045e-05  -8.5275272985960130e-05 4.8740470805729940e-06 -2.5155726011685919e-05  3.3548126420862268e-05 7.7511375524666156e-05 -2.2289140798162847e-06  4.1190338918187681e-05 5.9146852420123900e-05 1.8726745972824767e-07  4.1628178990020473e-05 5.7656370811935423e-05 -8.8360387269325069e-06  -6.3919160530540381e-05 -8.7660804943964183e-05 2.7429567048121682e-05  -1.0186196525325972e-04 -4.7101454664695679e-05 2.1680008385518722e-05  -7.0355268096746327e-05 -5.6072480730844870e-05 2.4471056889680104e-05  -6.7290083315413624e-05 -8.7229723428273247e-05 1.5603401214238928e-05  5.6492987549387284e-05 9.8599161443774550e-05 3.5010415265902834e-06  3.1490305283781566e-06 8.4116016423863428e-05 3.7030912972592906e-06  4.2691332691161412e-05 7.4071835088849365e-05 9.7941955604518279e-06  -6.6551087845354709e-05 2.8154285866859676e-05 -4.4455915692306611e-06  5.1466960682940884e-05 6.7323665031473025e-05 2.5875421323774746e-05  3.6511061420419298e-05 6.3462570458707232e-05 2.6386949735665157e-05  5.8715352288930920e-05 7.1163650876334677e-05 1.6369817060324518e-05  -7.2984645148101369e-05 -5.0599336878188754e-06 1.2463152694026589e-05  -6.8840802391159075e-05 -1.4568356670528490e-05 2.6120260034055121e-05  -6.8905886261883142e-05 -2.3084209803735167e-05 1.3245257944199441e-05  -1.0668192022223465e-04 -3.8501729429982964e-05 -3.3594947757729082e-06  -8.0743259645789646e-05 -2.5205179278584128e-05 -8.8961477781146312e-06  1.7990317472514297e-05 -7.0071005166386660e-05 -8.2814214390532999e-06  4.0699847829276238e-05 -7.5208600037252689e-05 -6.0316788534234695e-06  2.9788645492308357e-05 7.8044406343186462e-05 -2.5293230536844507e-05  1.7679435366684508e-05 6.8384745960169572e-05 -2.5180972603769295e-05  4.4995282044276421e-05 -7.4307275060047430e-05 -1.5580024254693319e-05  3.4997923096861316e-05 -1.0897090615319678e-04 -1.7030722832986206e-05  -1.0215215428812784e-04 -5.2808314091456938e-05 -1.3007826051605139e-05  -8.5524529905553847e-05 7.5600816515471211e-05 3.5201351271065377e-06  -4.7175554054173324e-05 1.0376567660934544e-04 2.3840336542973004e-07  -5.6862199603189587e-05 9.7859977056489683e-05 1.2956686011873707e-05  -2.4607322821634719e-05 -6.7888303878051043e-05 -7.2130626414191067e-06  4.3146619697066953e-05 -7.3628743807622665e-05 1.5594976659413072e-05  4.4557632313950984e-06 -7.7486251503928465e-05 1.7589507399638094e-05  2.8241674548448775e-05 -6.4387097097832425e-05 1.3186896276359000e-05  4.2322131064619275e-06 -8.4950487779713801e-05 1.2522634652936986e-05  -6.0253834974743447e-05 9.6485769277517293e-05 -7.1000969105526789e-06  -6.2010493010455280e-05 6.1082043978357952e-05 -1.1296015091831012e-05  -1.0080119076895334e-04 5.6182291910296166e-05 -3.8633937120732076e-06  -6.2239488804710546e-05 -3.6540727812572070e-05 8.0680374535350748e-06  -6.8169656493791570e-05 -2.6118901099719909e-05 8.1626280725466130e-07  -8.4756278406567087e-05 -1.9051736601578951e-05 8.2042380429445373e-06  -6.7420106288050154e-05 -4.1523887881518981e-05 2.9196101956039087e-05  -6.2276245160778761e-05 -2.9962746956804239e-05 2.6426601648394490e-05  -7.4383052996622318e-05 -3.2031757153526202e-05 2.0895693363082914e-05  -7.6469260602670685e-05 -2.6304762165794260e-05 2.8274394279992414e-05  -4.4863083781275016e-06 -8.1640337617623987e-05 -1.9978065683673630e-05  1.5823097671792400e-06 -7.2377419513793389e-05 -1.8267757096087069e-05  1.0393042263150502e-04 4.8772484552044322e-05 2.4277540130631788e-05  6.8525790723921695e-05 9.1539673571005821e-05 2.6586076759516840e-05  8.8664252421004973e-05 6.9140970505698313e-05 1.1989994400081549e-05  -3.4761767816152244e-06 1.1361200756908563e-04 -2.7809702508844612e-06  1.5048028112877661e-05 -7.1048667457968779e-05 -1.7354911936317961e-05  -1.1473821656841828e-04 5.5257605757512940e-06 1.7224581514037810e-05  -8.6924660994541948e-05 1.1313860701147776e-05 1.0488587346930578e-05  -1.1347823766905356e-04 1.1791987784235645e-05 5.2693696620626315e-06  6.5339156828620598e-05 -3.1097379015693854e-05 7.3806446065106977e-06  -9.5490734006885097e-06 -7.2253219052604046e-05 -2.7049894529702310e-05  -3.3951323525072625e-05 -7.4320750982509923e-05 -1.7889735791612115e-05  -6.4565126856933042e-05 3.3971900666748570e-05 2.6477770115108891e-05  -6.8479179516200888e-05 2.6639979149442343e-05 1.2031194647896234e-05  -6.0279396508686328e-05 4.1266172780767518e-05 1.2554708527703216e-05  4.2016117785487729e-05 5.7875474316585083e-05 1.2354452149541914e-05  3.5387641145972382e-06 -6.8056486240229653e-05 2.4140658564054326e-05  1.2853580845791824e-05 -6.9130353029823972e-05 1.5639168142337012e-05  -3.6860965307656988e-06 -7.0289337576899937e-05 1.5095194325047343e-05  4.2838641887607193e-05 -5.6150863019375842e-05 1.5706172761060315e-05  4.2931428479743961e-05 -5.7269724277440476e-05 9.1110107717935656e-06  5.5580293076366351e-05 -4.5292331064930569e-05 1.3878036385685546e-05  -8.1488889725140734e-05 -1.2621884507032601e-05 2.7703070218613427e-05  7.2176235616113800e-05 4.8739332203050681e-05 4.7235298007523502e-06  -1.0032192824862069e-04 -5.4802821128915196e-05 4.0049617246097827e-06  -1.0830142302173600e-04 3.0905031415246458e-05 -2.6001596615694200e-05  6.0332629991279350e-05 -9.3160201325584847e-05 2.5992059345059538e-05  8.0899212637411232e-05 -7.6544973994823547e-05 1.5281753403240363e-05  1.8626413656572047e-05 1.1500492767368572e-04 2.5578283576721056e-05  -5.5929265621960058e-06 8.6886621198395872e-05 2.6258312760901411e-05  -3.6536512319050814e-05 1.0841233592897426e-04 2.6763685837034016e-05  -8.1282920251437440e-06 1.1377537885821290e-04 1.5619321669698958e-05  2.0467391538826140e-05 -6.6121671055503780e-05 2.3354391106416025e-05  -5.9721813005568208e-05 -3.8102019221249621e-05 1.7106867679338940e-05  2.9927413364695748e-05 -6.5913308771304522e-05 -1.4835556551643717e-06  7.1417237605302306e-05 7.4917773438946678e-07 -6.7531107757411922e-07  6.1885057392433167e-05 3.3465592985595481e-05 -1.6369400658746318e-05  -7.8617622228046078e-06 8.4117225615100856e-05 -2.5540534311216381e-05  -5.9771335836189540e-05 9.5337540591289410e-05 -1.6458349268045232e-05  -8.3659011360232812e-06 1.1262025679422601e-04 -1.5208541310669033e-05  4.6218278708681361e-05 5.2043277714824488e-05 -2.5787893836529198e-05  -3.7349816389514935e-05 -6.1469313540387573e-05 -9.6358001196136375e-07  -3.5982503505032415e-05 6.3269261351158671e-05 1.6354118901606076e-05  -4.9309972187857309e-05 5.3191148652210881e-05 1.5780186519454166e-05  -3.5956178130667788e-05 6.3083855452489084e-05 7.7140989441286329e-06  7.9695324473072748e-05 2.2440737216399247e-05 -2.6261861781502907e-05  -5.1405614739301889e-05 -4.2548848760451665e-05 2.6436329745232183e-05  -8.2191237920573406e-05 7.7301758466172651e-05 -2.7554221941038939e-05  -4.5872663491659492e-05 7.2072622918571431e-05 -2.6094488987419273e-05  -3.5642297161922926e-05 7.7090323704110943e-05 -1.3132148831691412e-05  6.4733878571004825e-05 2.5505549329148837e-05 -2.6439675042074324e-05  -7.2196849952998037e-05 4.3555817796219617e-05 -2.5951032238098709e-05  -6.1213881875904426e-05 5.6456999174967560e-05 -2.5908171975112119e-05  1.2100360848991581e-05 7.1508963869281963e-05 1.0243459973454530e-05  -9.8594882369440448e-06 7.2037929592074231e-05 7.3710245623482993e-06  2.1228454844559651e-05 6.7869146892561859e-05 -1.6701300551926545e-05  -3.8632975509678921e-05 6.0871147846072740e-05 -8.3781311785033998e-06  -1.1283490434820981e-04 9.9794304847637812e-06 -9.8510532260905639e-06  7.7241667083659200e-05 3.9608125590144713e-05 1.5302978256765555e-05  6.0005558552062009e-05 4.0279915444044874e-05 2.6069797135617267e-05  6.4704689512229765e-05 5.5739746344503834e-05 2.5333684951649415e-05  5.7657840537467699e-05 4.3450403582557434e-05 1.6862013723671172e-05  -8.8746968197730858e-05 -6.9930465510551943e-05 -2.6313303694474957e-05  9.4584978267889805e-05 5.8593193590866800e-05 -3.1654850969566260e-06  -7.9947502800333052e-05 -2.5786967130752548e-05 -2.5312307264427295e-05  -7.1829661787076317e-05 -2.5699513293942488e-06 -2.5832340950781438e-05  -2.8451337911845788e-05 -7.4358187919818563e-05 1.9991178687885589e-05  -2.0613683988515526e-05 -6.7662046877041654e-05 1.2850216836985407e-05  7.0469841785908263e-06 -7.3121081138700691e-05 -2.7470084580070652e-05  -3.6352102528395259e-05 -6.0337581510561311e-05 1.6235316384283995e-05  -3.2603535207137126e-05 -6.3563345613671892e-05 7.6466471090614847e-06  -3.4469171336450993e-05 1.0636201628804857e-04 -2.6480700861635038e-05  -6.0689483550167844e-05 4.0112401956550508e-05 4.1329015631870292e-07  1.3122945914219983e-05 -6.9798320676728469e-05 1.0188719577743201e-05  2.5590944400120193e-05 6.6367720934109242e-05 -1.0897382791559752e-05  -7.1115957478378849e-05 4.8133618203327235e-05 2.5984022902185252e-05  -5.4808840501843080e-05 4.7968736188599948e-05 2.5808681419009649e-05  7.1355024691013228e-05 1.0358983675161411e-05 2.5520751679844650e-05  6.9159601170776361e-05 1.8349690231855483e-05 1.1447007544027217e-05  8.0876091553088979e-05 -1.5398060910857471e-05 -5.4065799927083308e-06  7.2133449282304389e-05 -4.7744322874469872e-05 -1.1194350662042019e-05  -7.3016976547542707e-05 -5.5738516183896688e-06 3.0520928829173708e-06  8.0704373859734707e-05 2.3252297363441356e-05 -3.9208815810694733e-07  9.7296804118607283e-05 -5.9923400276815764e-05 -2.8049188365782125e-05  1.0710262617301712e-04 -3.3714888074283894e-05 -1.7032816982835156e-05  8.2285295072195724e-05 -1.7657304868315953e-05 -2.7284089049376402e-05  -8.2176638149166967e-05 2.0188512780642360e-05 -2.6038762795071293e-05  -6.9048008236944445e-05 -8.8624807021101784e-05 -5.7056669487648337e-06  -3.5886331221538452e-05 -7.9685656587450446e-05 -1.0620000165210907e-05  -5.6207096566319650e-05 -9.6467899361594878e-05 4.3899491429518023e-06  -2.0731572495000213e-05 6.9421230967044073e-05 1.4691670020824583e-05  -3.0894832107523652e-05 6.4599215467662141e-05 -2.6282816441289406e-05  -2.4033231657998433e-05 -7.5146381875515478e-05 2.7791813838240033e-05  -2.7719402824190881e-05 -6.0251884080383726e-05 2.5291028151209891e-05  -1.3001445546060251e-05 -6.6194410398438998e-05 2.4314798450713872e-05  6.6355766120380525e-05 -2.8562849922130103e-05 -3.1370450717252346e-06  -2.5816847160198913e-05 -6.7433717353425227e-05 -2.6823875440274750e-05  1.5002369712721761e-05 7.1196798781112707e-05 -1.1737832012857607e-07  3.0862388794256227e-05 6.5557333963296778e-05 7.0982952308565707e-06  4.4132470643983018e-05 1.0433605635632207e-04 1.4181732869866138e-05  8.0484581099841176e-05 -7.7321722171545967e-05 -5.1349089529195966e-06  3.1552166958254099e-05 -6.5578463513077924e-05 -1.4094869177894349e-05  2.4166408807613523e-05 -6.9541713241820182e-05 -2.8217146668221091e-05  -8.3182026620712068e-05 7.9849189148817527e-05 2.5066112896816733e-05  1.1002824369502187e-04 1.0823804566166048e-05 -6.4449545072542670e-06  1.0768577275182468e-04 -3.2054871626979816e-05 -1.1020174027007888e-05  8.6037986196328028e-05 7.0889939441253757e-05 -1.6003334979501361e-05  -7.9217587528799819e-05 3.1645931599365683e-05 2.6427826022305311e-05  -6.7374418865145079e-05 -9.0496314267396566e-05 -1.6491516725836817e-05  -3.9786157901862851e-05 -9.5684719937246687e-05 3.9797416480984342e-05  -3.9009657449584647e-05 -6.6120953174926599e-05 3.0115104023454664e-05  -1.6026977078260025e-05 -1.0861125431061992e-04 1.9888870839682009e-05  -2.4282409146493787e-05 6.7802770017061844e-05 1.5105719362093766e-06  7.1776565265654067e-05 -6.4572798242495584e-06 2.4659402584625988e-05  8.2265927037083192e-05 -4.6388906162543975e-07 -2.6647688960821035e-05  -6.1486603692159752e-05 6.3776034821054169e-05 1.6015271533289416e-05  4.0930521556179334e-06 7.3123738520405892e-05 2.6441697600525844e-05  3.4780900525923974e-05 -1.0667332254473757e-04 -1.0457368464746671e-05  -2.8738910526531365e-05 7.7820059066959830e-05 -2.6276779164155271e-05  -6.3551516905805704e-06 1.1224300908011322e-04 8.5065852217731120e-06  5.7300