<?xml version="1.0"?>
<VTKFile type="UnstructuredGrid"  version="0.1"  >
<UnstructuredGrid>
<Piece  NumberOfPoints="370" NumberOfCells="1211">
<Points>
<DataArray  type="Float64"  NumberOfComponents="3"  format="ascii">0.2683758495222019 -1.490673620404064 1.475667784107566  -0.2165167111830257 -1.978674965265306 1.059418840454187  0.03296184272064252 -1.996753541853206 1.470035164610787  -0.2308620053190986 -1.551539094294585 1.717794458136407  -1.493079834035256 -0.02565043060049582 0.4708275303802579  -2 -2.449293598294706e-16 0  -1.981971206824973 -0.1830494089890101 0.817455436623969  -1.973204015961851 0.2720641916429692 0.585554881990308  -1.442538962714198 0.1702583109259656 0.9778387525341716  -1.973204015961851 0.2720641916429689 1.04935599125763  -1.98098155916357 -0.1930974703189275 1.399842543598607  -1.973811255843297 0.2658987816605045 1.52516799132508  0.1466855526147347 -1.464880016853866 2.2297974104337  0.03653064831300958 -1.996402045182105 2.459535282061257  0.4182078247438861 -1.953068608486724 2.399152904188485  0.3606546971297125 -1.571158736162652 2.586357545217903  1.014116663803043 1.091301493651112 2.474767832486639  1.479048369690392 1.335212121076152 2.339377229549288  1.313189196928463 1.497122116450428 3  1.626090978348496 1.156040184014598 3  1.28393644087122 0.6551747871608027 0.5464156047922772  1.66978440387981 1.098334036361095 0  1.135486067825821 0.947534454009326 0  1.613598789402801 1.171261960287239 0.514680254982937  0.8505499342917178 1.02575904982513 0.5353204991820871  1.189751496591888 0.7953090613197497 1.205021353519885  0.7551518935731276 1.265137931922017 0.9499300047073244  0.7876799948882367 0.6089280362230858 0.7814979844598379  0.3505506524007387 1.439119323266543 2.229124975212371  -0.1879604925798804 1.981487507310104 2.257437501874302  0.1821743391565477 1.595435930750562 2.5903667231274  0.2740135347110015 1.973012022427457 2.410692233486728  0.5838681171949094 1.350343322085466 0  0.9958825989361937 1.724545838077586 0  0.570825861405329 1.906772433206812 0  0.7911968624075201 1.833952643622452 0.6008470958115144  -0.8836349378529436 -0.4579757732566521 2.310914062613334  -1.438480770485098 -0.07050119218872961 2.438185635059182  -0.9916319741441293 0.08496199232257136 2.100102294688029  -1.441806623388049 -0.4387237814713537 2.034006661436112  0.9025541663092692 0.4225803863622857 3  1.312661692504367 0.7416251454977584 3  1.107235171763327 0.9941180878741851 3  -0.4179722159358051 1.953140079637284 3  0.04335340489247286 1.995730062311829 3  0.5916715253007023 1.35922078290025 1.616040581602528  0.5177103743712206 0.8517061283556282 1.263147926922086  0.9827995192597103 0.1746394117049448 2.234570310665951  1.323841507958512 0.4889974985894578 2.488428520580235  0.9955658339392071 -0.04502084354218341 3  -0.7740713825566979 -0.6255101783274258 3  -0.9807852804032304 -0.1950903220161286 3  -1.344567555190214 -0.6983284766762989 2.512258555473227  -1.43886208970591 0.5149695080182192 1.569797912004486  -1.873357740944297 0.6809793394824694 1.315280730417338  -1.188860511984404 1.06011716050881 2.563049150981435  -1.423509350166562 1.402886612173638 2.399036955962143  -1.245839619965377 1.552394485835316 3  -1.059542960476273 1.69051866591576 2.444231285366565  -1.126481124092755 -0.9473283376278887 2.074233125962432  -1.294582432735518 -0.8206291844852139 1.551364336100786  -0.9375070007058035 -1.214415204909717 1.304121182405264  -1.312762776967178 -1.497472070268641 1.943469646961802  -0.4857392175468307 -1.371645797971567 0.9777955730243457  -0.490385948986904 -0.8663113380070018 1.393053778537583  -0.6397769089613947 1.885856361599427 2.410835427716981  1.91926574085063 0.5296409455353088 2.339697577168066  1.399310647126385 0.4861101870387528 1.965101941806065  1.745217422811992 0.9572087840349657 2.446687387956882  0.2171273278454561 1.452231135633228 0.7206241776988639  0.07503473923697349 -0.9926097232320116 3  0.5289722636881395 -0.8456865231038897 3  0.3150958902771757 -1.466099679343499 3  -1.704258405401222 1.033837715886708 2.209211779154401  -1.813533168648966 0.8293990131207396 3  -1.57081860896361 1.223389760977683 3  0.5942163908489371 -1.374481420233743 0  0.7270811635437406 -1.274908880619527 0.5462966671918739  0.9958825989361997 -1.724545838077583 0  0.8720618164091422 -1.226870877129539 0  -0.6635133589578204 -1.878655988212402 1.904906559684864  -1.018560038870415 -1.71242449389789 1.576920919911466  -0.9319352925012672 -1.758726385481112 2.318592313341751  1.52814208573423 0.1613137918978927 0.5102072734156454  1.931628784137607 0.4888854537001639 0.8268342758254814  1.873050508530103 0.6819921490195341 0  1.779059765191089 0.8938942146969522 0.5856441150032816  -0.8598386698837637 0.5024954593186663 2.384476326122496  -1.514674703827642 0.3918295191835697 2.521219115594657  1.13378064835715 1.644358907156259 1.504736713985522  1.16929327003969 1.615214451734676 2.02523850809439  0.9802837104947405 1.015623498320988 1.932926185769896  -0.6020906612473962 -0.7932912835157278 0.5300545641521022  -0.8836349378529436 -0.457975773256652 0.6404787520590902  -1.023790947274213 -0.8542189253140726 0.4828357610848663  -0.602090661247396 -0.793291283515728 0.9479788500445958  0.06424814067857137 -1.462513542149503 0.8252938567089984  -0.07495270366908997 0.9926178030302177 2.335678285116733  -0.1633239734712832 1.457514625388545 1.969260541812861  -1.988366544844581 0.1181164523892848 1.985795232067481  -1.851925440117974 0.7516321667079744 1.81593851648282  -1.9147265257177 0.5446047324439057 2.31369071979841  -1.36936675165574 0.5445791180649232 2.094601113017113  0.9314397286268589 1.185469520867052 0  -1.940494357883519 -0.4596595737911316 0  -1.873203290925756 -0.6814884929589626 0.7907882208455987  -0.9408192553364747 -0.3268406500285767 1.845715925535895  -1.441353532002964 -0.002342185071706068 1.686018115577875  0.477219149204427 -1.935167718916343 1.889112662052278  -0.04369448314686741 -1.9956964690359 2.079055695557334  0.6612847082440418 -1.340114905463987 1.108893916461269  0.34023626756698 -0.9367557391813277 1.488714204061066  0.7082218437882377 -1.311703949689869 1.769051025256928  0.5360331878793529 1.383554395144927 3  0.6305366219362483 1.461672021701259 2.573137157518678  0.5013469316464557 1.927848636129754 3  0.9318504505456354 1.758771734451193 3  -0.7378844931157915 0.6696040306912326 1.328661823726752  -0.9726455044974875 1.137273922375864 1.073924182966423  -0.4172064841849361 0.9054265768665727 1.472187054373983  -0.5041753880756408 0.8589407292555569 0.7961323206085096  1.491481428815471 -0.04246098436356982 1.192857642755402  1.957241061154269 -0.4044530916512844 1.130662055155801  2 3.927989171219834e-15 0.7844257188377417  2 4.384910957748994e-15 1.495255624790921  -0.5709179202917503 -1.906744507448919 1.406703321415089  0.06779261740588638 1.516765368192542 1.298023978812301  0.1736639328492308 1.982895595541155 1.940581159545814  0.4218757816223541 1.951955945932026 1.52996483538921  -0.3105322360770285 0.9457663586235725 0  -0.546994236734958 1.360514599575592 0.5403398490353795  -0.7166731528108555 0.6954501236352435 0  0.9545290653659886 -0.2816454632327977 0.6694471130563237  1.191933442830757 -0.8743164676129439 0.903733845483468  1.451841918673485 -0.4160870690660194 0.8124817833527676  0.7166668731150645 -0.6954577754667044 1.218435799795285  0.08389629142111731 -1.655366426983336 0.4668966795233791  0.7911968624075145 -1.833952643622455 0.6178951048582555  -1.85201261692297 -0.751344783295784 1.504740755216978  -1.699069305881103 -1.043545838264532 1.110902756623406  -1.463294511507383 -1.354408252813768 1.485647995083956  -1.987182279842393 0.1301404967408782 2.419469863729675  -1.961570560806461 0.3901806440322567 3  -0.7388634075939596 -1.312816839320978 0  -1.189714972496138 -1.598454793656055 0  -0.790979724086402 -1.834068706473131 0  -0.5715818319253527 -1.466126416576964 0.4872632822601943  -1.437186197165314 0.3522306454019957 3  1.926454636254942 -0.5059423333770237 2.481031809468046  1.813305601459702 -0.8298247613866921 2.479328878025894  1.894126711453047 -0.6125132192606522 3  1.339634282624336 -0.7964456803802692 2.547452680787598  -1.429512709177072 -0.3562124671024821 1.118349919785871  -0.9967945349396864 0.03254563292889089 0.6355050416165857  -0.9916319741441293 0.08496199232257164 1.271933936467721  0.1878647545340524 -1.981496936684592 3  -0.08831675386205026 -1.592209287680673 2.5786718043508  0.8554989589222524 -1.799582456970345 2.209213972832537  0.6403047911642088 -1.885696230283868 3  -1.302506330247836 0.7314384720123613 1.10539181245277  -1.392669400495818 0.522717820376584 0.5650798974098937  -1.875730638840034 0.6731569434453054 0.8174554366239695  -1.669846618080803 1.098217641777694 0.7844479410434644  -0.9545210890684874 0.2816717575618023 3  -0.7166731528108555 0.6954501236352435 3  -0.3468272391397816 -1.965840498494632 0  -0.1161671093212522 -1.988558538379005 0.5893077665132737  0.9025541663092692 0.4225803863622857 0  1.340692296948859 0.6985534342409534 0  -0.5131581223052618 1.382860631703773 1.12923514616147  -0.6813513412608935 1.373329703138565 1.700767684044581  -0.02829600397680052 0.9972130868589251 1.611363293353632  1.52494138948322 -1.279291314658712 0.6173649490931152  1.779059765191092 -0.8938942146969456 0.5606628110678629  1.779059765191092 -0.8938942146969457 1.01238676768993  -0.6020906612473957 -0.7932912835157282 2.439227975407248  -0.980070800056786 -1.125754826208231 3  -1.625823540550338 -1.156366057914526 2.400340978867071  -1.309707183910281 -1.49997973068384 2.410467318031572  -1.47869799332213 -1.335639055916161 3  -1.174791349590177 -0.9094291444928995 0.8802318284181406  -1.409798914277625 -0.6679439708724926 0.4913454550270371  -1.669846618080803 -1.098217641777695 0.6009630440378566  -0.1879604925798822 1.981487507310103 1.593296678584914  -0.5483980349513315 1.913575839982149 1.925367090229609  -1.033679646116657 1.024275855
[...]
<PointData  Vectors="f_16"> 
<DataArray  type="Float64"  Name="f_16"  NumberOfComponents="3" format="ascii">1.5236416434774452e-05 -8.2730255812393975e-05 3.7031861320222092e-08  -8.1081162384431983e-06 -7.1191797034559734e-05 7.1875487550024074e-06  1.2605236517590444e-06 -7.1862375211795157e-05 -4.5867528440557575e-07  -1.1863765611142682e-05 -8.1126577896559906e-05 -3.7200810371080131e-06  -8.5522151136368068e-05 1.1466616435088013e-06 1.9402646431368380e-05  -7.2073466654517396e-05 1.4134698668804410e-06 2.6725830998923413e-05  -7.3187352181947114e-05 -5.0274913604434206e-06 1.2230023442901835e-05  -7.2475943199206861e-05 1.1741840503194865e-05 1.6336932756969923e-05  -8.7151376736165979e-05 1.1352883681275846e-05 1.0323479126454348e-05  -7.2118881389716735e-05 1.2009915736838117e-05 8.3438225997870384e-06  -7.3308852300116737e-05 -5.5164298644425376e-06 2.8201246419564889e-06  -7.2606178363686724e-05 1.0279069667997941e-05 1.6810277022938472e-07  8.5168908180793459e-06 -8.6104896057939180e-05 -1.3429169213301667e-05  1.1206645568072454e-06 -7.2286866361215914e-05 -1.8123750609506742e-05  1.4596758929014868e-05 -7.0960049083161619e-05 -1.7157310027788634e-05  1.7728243131991791e-05 -7.9103677007658869e-05 -2.0372757738222893e-05  5.6314357300861244e-05 6.1784496525454070e-05 -1.7307912048705991e-05  5.1497166292089878e-05 4.7620481331859700e-05 -1.4220243027930023e-05  4.5678371744154318e-05 5.2214712148142667e-05 -2.5599185974406797e-05  5.6982625735469778e-05 3.9989885073530863e-05 -2.4857132530807349e-05  7.7058978865419988e-05 3.9641021947248945e-05 1.5525993469630124e-05  5.9910272581751408e-05 4.0290536274106626e-05 2.6331102791360384e-05  6.4607882925876494e-05 5.5754386267181410e-05 2.5522511425932095e-05  5.7489209143211204e-05 4.3477262605996482e-05 1.7113551449211524e-05  5.8544249418681909e-05 7.1198751188211493e-05 1.6516366009823577e-05  7.1916955563405320e-05 4.8781227105161445e-05 4.9332088105102637e-06  4.2464444492742945e-05 7.4120579624916045e-05 9.9186631036675773e-06  8.8451326654781563e-05 6.9185774195782714e-05 1.2143558114712449e-05  1.9537812081434267e-05 8.2229385088066390e-05 -1.3127248253752636e-05  -7.5965349190811281e-06 7.1228429630185096e-05 -1.3059897567988319e-05  8.4880886258115480e-06 7.9890037554101114e-05 -1.8675548507292937e-05  9.1356329865852390e-06 7.0661373844254483e-05 -1.5491353889693318e-05  3.3590521461836339e-05 7.9400555118691214e-05 2.5539881977826704e-05  3.6423709261334404e-05 6.3479047435444780e-05 2.6529235671408271e-05  2.0075003869472285e-05 7.0329017050030506e-05 2.6164578782696590e-05  2.8683449652199521e-05 6.7272682139779804e-05 1.5535549426789539e-05  -1.0258368556018557e-04 -5.2715505790258152e-05 -1.3061049332212776e-05  -8.7511049473940836e-05 -4.6262111051528698e-06 -1.5822724415533418e-05  -1.1323327323120034e-04 1.0066425833270123e-05 -9.9439491381365781e-06  -8.1132217229208805e-05 -2.5121242954403146e-05 -9.0351395327826694e-06  1.0015828147483416e-04 4.6870171329671489e-05 -2.6859263111796739e-05  7.0713748663660971e-05 3.9517586713924814e-05 -2.6223668365886341e-05  6.1233012338001675e-05 5.5373520678155586e-05 -2.5540740870763592e-05  -1.6445662871966433e-05 6.9359787356705494e-05 -2.4853638218700857e-05  3.5660546012537481e-07 7.1029729658009699e-05 -2.5551488595107739e-05  3.3219584153630783e-05 7.7591755087781251e-05 -2.1388651049443930e-06  5.6218787090124877e-05 9.8663813958158497e-05 3.6064289349833189e-06  1.0870872228245885e-04 2.0234114945628797e-05 -1.3979484818396449e-05  8.1009815196455407e-05 2.9905957013324818e-05 -1.7934487315485695e-05  1.1161110183943986e-04 -6.2188571005671357e-06 -2.7370247113692685e-05  -8.9283911816946782e-05 -6.9810947118176744e-05 -2.6343119357532919e-05  -1.1160670417272854e-04 -2.1999289996378870e-05 -2.5162505259720307e-05  -7.5207879369025175e-05 -3.7674577246933242e-05 -1.7354489385537130e-05  -7.9484858159066581e-05 2.9567521931876407e-05 -3.2533656361658588e-07  -6.8783986225660079e-05 2.5976707533482510e-05 3.8997333638453517e-06  -6.1681653198694930e-05 5.3784057995933297e-05 -1.8134510154787924e-05  -5.1570352586611528e-05 5.0224109774576574e-05 -1.5134977458230486e-05  -4.5710847733236732e-05 5.5619621973543196e-05 -2.5558015382549687e-05  -3.9121466286992654e-05 6.0882904955525593e-05 -1.5937626371190829e-05  -6.6297117666531228e-05 -5.5434577224632213e-05 -9.0882849377631070e-06  -7.1186283361233558e-05 -4.3433621364272002e-05 -4.1553771841034046e-07  -5.1580860575290504e-05 -6.5624163405743276e-05 5.0736670314917939e-06  -4.8047404092915253e-05 -5.3898902445379274e-05 -7.3637103913829474e-06  -2.8997557570108851e-05 -8.1636027150589816e-05 1.0863037028543805e-05  -5.6501940480801554e-05 -9.6415885917339967e-05 4.4131114022114887e-06  -2.4026922879845051e-05 6.7400977282757891e-05 -1.5725041038504496e-05  6.7309101688042537e-05 1.9546392303916243e-05 -1.4611798234598107e-05  7.8970003205478876e-05 2.8069429139475771e-05 -8.5304298412663112e-06  6.1362307564684509e-05 3.3619551568196381e-05 -1.6108323206737997e-05  1.2318780577450737e-05 8.6097443858071621e-05 1.3191023598720894e-05  8.7502986799562145e-06 -1.1382160369720185e-04 -2.8459535144130581e-05  5.9110419878997424e-05 -9.7797776712706968e-05 -2.7041744121716797e-05  1.7436331655630416e-05 -8.3837942192165817e-05 -2.6145373057533983e-05  -6.1770862225438752e-05 3.7851684353981288e-05 -1.1731117389877202e-05  -6.5659444566914046e-05 2.9326249490024082e-05 -2.4816152684516619e-05  -5.7311290724217013e-05 4.3550926777967935e-05 -2.5691703010616672e-05  3.3467415364616708e-05 -7.5339401633021835e-05 2.4667990377473092e-05  4.2976143920592020e-05 -7.3611022412717675e-05 1.5816306348837895e-05  3.5708500099059214e-05 -6.0202647718387393e-05 2.4856371886929628e-05  4.8292120849062682e-05 -6.6613702940762653e-05 2.5029888039924565e-05  -2.4984017755806943e-05 -6.7815207411053136e-05 -7.1754473103478619e-06  -3.7675697550268443e-05 -6.1407837328157646e-05 -9.8546960923312836e-07  -3.3843186218775318e-05 -6.3613848160511661e-05 -1.4091539063891099e-05  8.2178665610300761e-05 1.0124622964557965e-05 1.6834708566939797e-05  6.8933939088824334e-05 1.8393907706667193e-05 1.1760797002262187e-05  6.6695339196520248e-05 2.6577606198338285e-05 2.5356899285488709e-05  6.2803129996969489e-05 3.2976902607482582e-05 1.6046845362018494e-05  -9.9299806659701180e-05 5.7904504284429197e-05 -1.6536958154594117e-05  -8.0295673279600504e-05 2.0941181455445543e-05 -1.7297581876412576e-05  4.0885199467544511e-05 5.9215178523168370e-05 3.5077483910566655e-07  4.1244676644829462e-05 5.7756644306125129e-05 -8.6759018435419116e-06  6.0441844835457200e-05 6.3792217132457496e-05 -7.6815365840040952e-06  -6.4081520395208396e-05 -8.7645770235212760e-05 2.7431770055213438e-05  -1.0203853061447733e-04 -4.7079375186879253e-05 2.1626727393430681e-05  -7.0509828955154382e-05 -5.6057038210000426e-05 2.4412617742485328e-05  -6.7516092418013613e-05 -8.7196243069707249e-05 1.5606161697556907e-05  4.0219901217332712e-06 -8.4924186141110435e-05 1.2653793131517100e-05  -8.8002798888510082e-06 1.1272947277081404e-04 -1.5199271453373239e-05  -1.0309220301764826e-05 8.5106609704277335e-05 -8.3166201936663303e-06  -7.2367614119701361e-05 4.5498168060827096e-06 -7.7994665481067776e-06  -6.6907564983531627e-05 2.8227855140551462e-05 -4.6973740328448789e-06  -6.9663110165270908e-05 2.0362570170346029e-05 -1.3685968490339225e-05  -7.9366633376505024e-05 3.2655766603307681e-05 -9.9653303761602673e-06  5.1375540150321052e-05 6.7339879100529270e-05 2.6025879547302773e-05  -6.8917822390471997e-05 -1.4570269643235504e-05 2.5904067911132184e-05  -6.9106039325556631e-05 -2.3052245011720804e-05 1.3049923898456544e-05  -1.0704232171425355e-04 -3.8427385606650570e-05 -3.4270637099768735e-06  -8.8309230462074769e-05 8.6360044496679091e-07 -2.4777312667403569e-06  1.7620234531228955e-05 -6.9998221195369641e-05 -8.0729554634285669e-06  -1.8202807804341356e-06 -7.2063121087135969e-05 -1.1242413709352927e-05  3.8310693267463853e-05 -7.5511176864707669e-05 5.9088402057834209e-06  4.0133453050098085e-05 -1.0636074916532475e-04 -3.9501510049681824e-07  4.0345516307963221e-05 -7.5135162186439536e-05 -5.8118845681724721e-06  2.9251005534595807e-05 7.8194036278589728e-05 -2.5210471640168795e-05  3.0448664449994314e-05 7.3610387145894304e-05 -1.8977639736653010e-05  1.7133842701829159e-05 6.8534029656837063e-05 -2.5130337974689022e-05  3.2657444088666627e-05 6.2401457150570967e-05 -2.5253679630763299e-05  -8.5806806740238345e-05 7.5659178615195309e-05 3.4414802195992986e-06  -5.5330272254435712e-05 6.5244877619289457e-05 7.7154061339796452e-06  -4.7480853787748975e-05 1.0383359606309367e-04 1.9874370701312130e-07  -5.7064735796545391e-05 9.7898934709818812e-05 1.2905516628180903e-05  8.3798617217468758e-05 -2.0789776366721394e-06 5.0120274267699451e-06  7.0762926218497594e-05 -1.3734851839411027e-05 5.6344459695452766e-06  7.1644356680342184e-05 1.6175718417815037e-06 1.2225029902811988e-05  7.1134979843357846e-05 8.6385504016468964e-07 -4.5425600360050088e-07  -2.0362028609724371e-05 -6.8592914030973342e-05 1.5491151640171601e-06  2.8666805231498403e-06 8.4180463815748744e-05 3.7106528841680298e-06  5.0615737193088020e-06 7.2141456717998584e-05 -7.2706356230556793e-06  1.4684370751196066e-05 7.1272589334482587e-05 -7.6836178504322171e-08  -3.6619612341984745e-05 1.0842129915341298e-04 2.6736931033794690e-05  -3.2687154008251587e-05 8.0442851665914062e-05 1.6873793436205883e-05  -8.3260752675648288e-05 7.9851876708621206e-05 2.4990460663642082e-05  1.1102371278527615e-04 -3.2062264522110439e-05 1.3910794707671680e-05  6.8514600810462608e-05 -4.9368561510488787e-05 9.2175539515246200e-06  8.0325584295854241e-05 -2.1911482489628509e-05 1.0598271106042069e-05  8.2666949667378655e-05 -7.6476879688434595e-05 4.7957469441467761e-06  4.3002719191692385e-06 -7.7476579712958086e-05 1.7732774948380080e-05  2.8066368375712785e-05 -6.4365172703169295e-05 1.3445305305877480e-05  -6.8479397299531781e-05 -2.6056339607871528e-05 6.2770204927841704e-07  -6.2490617377807656e-05 -3.6495373538241302e-05 7.9149052647479215e-06  -5.3882470106692245e-05 -4.8415077694953603e-05 1.0657885512146116e-06  -7.2212465283563420e-05 4.4770599830537045e-06 -1.5693691699031237e-05  -7.0658942678446560e-05 1.3601062692501485e-05 -2.4937648746155865e-05  -3.9094396028085172e-05 -6.6129823380563956e-05 3.0118971573651554e-05  -4.0908234598982285e-05 -5.1486153710346109e-05 2.4771048314609665e-05  -2.7805638746369113e-05 -6.0261286263537280e-05 2.5310911690643393e-05  -2.8610336547293552e-05 -7.4346299549859888e-05 2.0027086039834908e-05  -8.2710373133729277e-05 2.0313549732896279e-05 -2.6210866451098022e-05  6.8915173250136486e-05 -1.8280349704219627e-05 -1.7453310213203416e-05  6.4526052382514340e-05 -2.9995192116824297e-05 -1.7833191863537607e-05  6.7270597345962799e-05 -2.2838134448061886e-05 -2.6627746838990222e-05  7.0113323089420788e-05 -4.2733984430423327e-05 -1.9341357223100306e-05  -8.5005223589403790e-05 -1.9006863850795432e-05 8.0633936443059966e-06  -1.1491264376138503e-04 5.5502288857687945e-06 1.7134088641770714e-05  -1.1375043003289329e-04 1.1843878206655504e-05 5.1768873098693150e-06  6.5033981854399819e-06 -7.3015198967227925e-05 -2.7305610612608135e-05  -4.9658296346774702e-06 -8.1545605471184955e-05 -1.9865992306505361e-05  3.1130619794498366e-05 -6.5493142694641399e-05 -1.3837836903286054e-05  2.3624888440320823e-05 -6.9439624436310097e-05 -2.7994122216497217e-05  -7.4508213888307021e-05 4.3011288787940927e-05 6.4280901446549735e-06  -8.0465942790364369e-05 3.1823026756180378e-05 1.6994089854631128e-05  -6.8683264489807259e-05 2.6670575401202488e-05 1.1778218076799631e-05  -6.0481194722323497e-05 4.1295623956496859e-05 1.2315460332257964e-05  -1.0883522934776781e-04 3.1031283828532659e-05 -2.6098725054775608e-05  -8.2725777798271975e-05 7.7431440221182937e-05 -2.7632442837241350e-05  -1.3087105728352572e-05 -6.6206597713252668e-05 2.4408563590256337e-05  -3.8597503161660257e-06 -7.0273955093971558e-05 1.5223702619163812e-05  1.0382364176973001e-04 4.8785839561639937e-05 2.4452215329102966e-05  7.3408428387506606e-05 4.0174170264673337e-05 2.6046571021815489e-05  -3.0368741834050062e-05 8.0078063477100815e-05 6.5011960289602915e-06  -3.8027670411077076e-05 7.3929882233029148e-05 -3.7315162234493754e-06  -3.8031484795929174e-06 1.1368965818086168e-04 -2.7651990184627233e-06  5.5399901830265646e-05 -4.5259477957553643e-05 1.4216046605826302e-05  6.4971055644776478e-05 -3.1196654418965169e-05 1.5240246529841287e-05  6.5092161959815967e-05 -3.1035982232030246e-05 7.7391279940200491e-06  -6.7827521220478764e-05 -9.0401693796525551e-05 -1.6486969367985273e-05  -5.5833928523792839e-05 -6.4621784936226697e-05 -2.6237794904142543e-05  -5.9035808256462600e-05 -4.1313528295739690e-05 -1.4865666717427905e-05  -4.7838435589887001e-05 -5.4130978149892475e-05 -1.5818852539290994e-05  -5.3984516309743545e-05 -4.8166279407889640e-05 -2.5494874555480579e-05  -6.8838549835815408e-05 -5.0033701775310762e-05 1.3644198940902907e-05  -7.4537234512416574e-05 -3.2014070750071534e-05 2.0770669390125645e-05  -5.9895313871320978e-05 -3.8078589654988225e-05 1.6960234207554284e-05  -7.5085093728311400e-06 7.2048023527167897e-05 -1.0259637738494402e-06  -2.0698201598210609e-05 6.9424856127607072e-05 -7.1247141047377912e-06  -6.2418101342002049e-05 6.1173208250009405e-05 -1.1434838204440682e-05  6.2133702381080214e-05 3.4388410318835349e-05 -8.5442291299940986e-06  8.5653910166161719e-05 7.1037966990392860e-05 -1.5827028329893420e-05  9.4255465510849579e-05 5.8676053020815676e-05 -3.0129268451625201e-06  6.8430567656114992e-05 9.1556128824916679e-05 2.6700858870910673e-05  -6.0218432577939654e-05 9.5445067437653706e-05 -1.6512564163809555e-05  -1.1781365969392579e-05 -1.1252021116884825e-04 7.6366978203935131e-06  8.1689888745594164e-05 -1.7644186357615489e-05 -2.7123838183958592e-05  7.5961042924129407e-05 -3.5105949105828587e-05 -2.7068254199816767e-05  -3.6158693831048267e-05 6.3295173606000936e-05 1.6192734203940243e-05  -4.9486893460656689e-05 5.3214579867531503e-05 1.5572178664292412e-05  -3.6204775612898717e-05 6.3129763387800969e-05 7.5520139690847245e-06  7.9197580407879345e-05 2.2555934361609626e-05 -2.6010673426318676e-05  -8.5808897606547550e-05 4.9990631668010532e-06 -2.5322864516362309e-05  6.9511972478190659e-05 1.0476679525339685e-05 -2.6065520064153972e-05  8.4635872515972265e-05 -6.6395903569016294e-06 -1.4283358981752448e-05  1.8539079520267192e-05 1.1501932367513822e-04 2.5620377222127428e-05  -5.6804076522094578e-06 8.6898950342246148e-05 2.6243982186077752e-05  -8.2982509754335093e-06 1.1380906312168824e-04 1.5627393646992862e-05  6.8377268836269014e-05 1.8049695588013600e-05 3.1040743713072887e-06  6.7709119725379145e-05 -5.0553162921769312e-05 -2.6532426180139942e-05  6.0695343412037048e-05 -3.8369778831501026e-05 -2.7293814230040787e-05  5.0524707194897877e-05 -5.1783860777698098e-05 -2.6668552953807853e-05  -3.6069128017307715e-05 7.7190048587504718e-05 -1.3222195668002180e-05  2.0762912346176843e-05 6.7993193074364084e-05 -1.6634680585594128e-05  4.3942628114506181e-05 1.0437661460380010e-04 1.4265195830678047e-05  -1.6202875901197443e-05 -1.0859527458072696e-04 1.9963831915221974e-05  -6.1654437722702285e-05 6.3800569730282976e-05 1.5882268031057118e-05  -5.4891977856761113e-05 4.7965243706073333e-05 2.5583198367566058e-05  -1.6840582065577380e-07 -8.5527309343122606e-05 -2.6525038368318377e-05  -3.1438015127463931e-05 6.4728542494338359e-05 -2.6427499919235399e-05  3.4386208812044051e-05 -1.0659854543528874e-04 -1.0310072204059024e-05  4.2680253611393738e-05 -5.6129839462449041e-05 1.6012593422451889e-05  4.2718322356338922e-05 -5.7230586616805281e-05 9.4190863508588745e-06  8.2440137214295349e-05 2.1860061159387912e-05 2.4996918248498725e-05  -8.0482738730405806e-05 -2.5662267796789958e-05 -2.5449308967449281e-05  -5.9463383892917919e-05 6.0450943860414000e-05 2.6315244687080410e-05  -7.1195076246492679e-05 4.8131815548739365e-05 2.5821913983244986e-05  -5.0107901960574134e-05 -5.1086277231845890e-05 9.6477828442326327e-06  -4.0083287869143212e-05 -7.3926842637522702e-05 -2.6491933902289040e-05  -3.4425062626060021e-05 -7.4222025695751593e-05 -1.7871503099363932e-05  -2.6362047679015131e-05 -6.7317577373295149e-05 -2.6796766006701695e-05  -4.0714627343959621e-05 -5.9657683279673396e-05 -2.6209228995771384e-05  6.0238125093745998e-05 -9.3171698276242349e-05 2.6160112250850891e-05  1.0669320769600737e-04 -3.3653476664351359e-05 -1.6799168678808795e-05  7.1693601923986883e-05 -4.7645863604963348e-05 -1.0906113864872323e-05  8.1177572921269724e-05 -7.7763456083657759e-05 -1.5535786349700516e-05  7.5805219541782713e-05 -4.4597557572776043e-05 -6.3838205424618358e-07  6.9874142101173644e-05 -5.9594226088633078e-06 -2.6468700366474954e-05  -6.6849977042618031e-05 -5.1082035527280197e-05 -2.6164622187136006e-05  -7.1526664570185130e-05 -1.3143010165628399e-05 -5.4716881819037290e-06  6.4973150243521837e-05 -3.0593976346954554e-05 -1.0892887452954097e-05  5.6334888773620706e-05 -4.4548132971652489e-05 -1.6656916156349136e-05  8.0556546373879902e-05 -1.5164033807796495e-05 -5.1735160490066253e-06  -2.3073941977199338e-05 8.1824881762304375e-05 2.6194200354555663e-05  -4.2593824803567768e-05 7.4850777781917407e-05 2.5452292905910534e-05  -7.9294430508701445e-05 3.1643098864118357e-05 2.6253023881599715e-05  -6.4644511563059247e-05 3.3967200396700070e-05 2.6229017980368756e-05  -7.0680330115792565e-05 1.8164211677988815e-05 2.5881291592205034e-05  1.1197965374408004e-04 2.1510387958496819e-05 7.3041350239484556e-06  1.0960485845909411e-04 1.0955564027596381e-05 -6.2600489603917730e-06  8.0379041219061324e-05 2.3284542224994623e-05 -8.9534775191922861e-08  -1.0114350468039199e-05 7.2091620970208764e-05 7.3080260410525390e-06  -2.0925007768657767e-05 6.9455668478282065e-05 1.4587227058649431e-05  -2.4587407443945926e-05 6.7867037406351324e-05 1.3918822401702357e-06  2.5179948333506406e-05 6.6474899025579853e-05 -1.0811562445696730e-05  1.1342785815369109e-04 -5.1431808342671397e-06 2.5473912727960735e-05  7.8535528496928369e-05 -1.6733737977253506e-05 1.8465375620717246e-05  8.4317481491012153e-05 -7.5268010364222847e-07 2.5098134865890136e-05  -1.7064401237137026e-05 -7.0442903321346259e-05 -1.5925116963764626e-05  -1.0094212011625514e-05 -7.2142483992252703e-05 -2.6952613183326694e-05  9.1154627884884563e-06 -1.1034384667703494e-04 2.7539254578637652e-05  1.5209586110668432e-05 -7.9622552313664060e-05 2.5583038592156925e-05  -2.3437074930275816e-06 -8.0034644685919950e-05 2.6454209713462380e-05  1.1873937975859419e-05 7.1558951743313969e-05 1.0276016537582724e-05  -8.4015922580204616e-06 8.4254884631166670e-05 -2.5563790756224900e-05  -6.0619523114403008e-05 9.6569701838137090e-05 -7.1543100050081036e-06  6.4231465360154412e-05 2.5664951218336954e-05 -2.6121438463011995e-05  7.0118680365993967e-05 -1.5015110946857669e-05 1.4784284083608709e-05  1.2011241534988388e-05 7.1446443981245411e-05 1.7233854178024230e-05  4.0031952314340843e-06 7.3137754365005766e-05 2.6439817716351691e-05  -2.9629074723521743e-06 7.2904858548850847e-05 1.5183490153640281e-05  3.0611509110500491e-05 6.5613740285451629e-05 7.2113776423618577e-06  -7.2364006679169764e-05 -2.4443724093766726e-06 -2.6069741544855144e-05  -4.2486448702031449e-05 5.8853298621591641e-05 -4.4359780284460778e-07  2.0384560150293215e-05 -6.6133019934858762e-05 2.3584370121810960e-05  1.2911323862961965e-05 -6.9768991993687308e-05 1.0385330958374751e-05  9.6765024181639370e-05 -5.9811443919108789e-05 -2.7809063404811519e-05  8.0711288694149133e-05 -7.6524666532018626e-05 1.5471305998981577e-05  3.6259056735996204e-05 -1.0471471144719002e-04 1.4151096810937656e-05  -6.7499823814758339e-05 -4.1527731829463861e-05 2.9098789754547930e-05  -5.1488406799407554e-05 -4.2552066999065626e-05 2.6319488746243167e-05  2.9620968467142417e-05 -6.5850904557714391e-05 -1.2288121366772011e-06  6.5763878980722911