<?xml version="1.0"?>
<VTKFile type="UnstructuredGrid"  version="0.1"  >
<UnstructuredGrid>
<Piece  NumberOfPoints="370" NumberOfCells="1211">
<Points>
<DataArray  type="Float64"  NumberOfComponents="3"  format="ascii">0.6305366219362482 1.461672021701259 2.573137157518678  0.3505506524007391 1.439119323266543 2.229124975212371  0.7233515360664949 1.860504275633375 2.143566592013062  1.16929327003969 1.615214451734676 2.02523850809439  1.962734657692562 0.3783613699999914 1.846559366820982  1.91926574085063 0.5296409455353088 2.339697577168066  1.745217422811993 0.9572087840349652 2.004132439917261  1.399310647126385 0.4861101870387526 1.965101941806065  1.491481428815471 -0.04246098436356954 1.192857642755402  1.240992448073932 -0.7277991002123511 1.504890969845327  1.451841918673485 -0.4160870690660196 0.8124817833527678  1.957241061154269 -0.4044530916512841 1.130662055155801  0.850549934291718 1.02575904982513 0.5353204991820871  0.9958825989361937 1.724545838077586 0  0.79119686240752 1.833952643622452 0.6008470958115142  1.190141907336148 1.598104417287793 0.790786027167462  0.1466855526147347 -1.464880016853866 2.2297974104337  0.03653064831300958 -1.996402045182105 2.459535282061257  0.4182078247438861 -1.953068608486724 2.399152904188485  0.3606546971297125 -1.571158736162652 2.586357545217903  0.9545290653659886 -0.2816454632327977 0.6694471130563237  1.285895848641168 -0.9157810167207565 0.4484794291144768  1.191933442830757 -0.8743164676129442 0.903733845483468  -0.04369448314686741 -1.9956964690359 2.079055695557334  -0.08831675386205026 -1.592209287680673 2.5786718043508  -0.4597234839101871 -1.940474970960854 2.365577208844509  0.8599034339052349 -0.5023742943566752 3  1.339634282624336 -0.7964456803802702 2.547452680787598  1.468057415404991 -0.2920147759474656 3  1.371659700543215 -0.6077316139648379 3  1.512588052516405 -0.2740719184538642 1.754192008279186  0.9893257645081893 0.1083773317058151 1.785271323260748  0.9756404903825265 -0.2120504217921436 1.431575385960868  0.9545290653659886 -0.2816454632327976 2.01543266745928  -0.6813513412608918 1.373329703138566 1.700767684044582  -1.111645100464135 1.018766509541888 1.580900689761718  -1.059542960476273 1.69051866591576 1.998542381954114  -1.170945775598536 1.613858275470806 1.514352004916045  1.52494138948322 -1.279291314658712 0.6173649490931152  1.669784403879814 -1.098334036361089 0  1.779059765191092 -0.8938942146969459 0.5606628110678626  0.1821743391565473 1.595435930750562 2.5903667231274  -0.1879604925798806 1.981487507310104 2.257437501874302  -0.4179722159358051 1.953140079637284 3  0.04335340489247286 1.995730062311829 3  0.708221843788238 -1.311703949689869 1.769051025256928  0.7911968624075247 -1.83395264362245 1.495263286014477  0.477219149204427 -1.935167718916343 1.889112662052278  0.2683758495222019 -1.490673620404064 1.475667784107566  0.9025541663092692 0.4225803863622857 0  1.135486067825821 0.947534454009326 0  0.6021968632248157 0.7932041258053155 0  0.9827995192597104 0.1746394117049448 2.234570310665951  1.323841507958512 0.4889974985894576 2.488428520580235  0.9025541663092692 0.4225803863622857 3  0.9955658339392071 -0.04502084354218341 3  -1.126481124092755 -0.9473283376278889 2.074233125962432  -1.664006297246322 -1.10914411354164 1.875888952633512  -1.294582432735519 -0.820629184485212 1.551364336100787  -1.312762776967178 -1.497472070268641 1.943469646961802  0.9807852804032303 0.1950903220161286 1.006853791166158  0.8534608015375593 0.5144276117421314 1.633723584493013  1.430264222105482 0.4050405554365119 1.451769552081978  -0.7740713825566979 -0.6255101783274258 3  -0.9807852804032304 -0.1950903220161286 3  -0.8836349378529437 -0.457975773256652 2.310914062613334  -1.344567555190213 -0.6983284766763056 2.512258555473228  -0.5131581223052614 1.382860631703773 1.129235146161471  -0.02829600397680024 0.9972130868589251 1.611363293353632  0.06779261740588695 1.516765368192542 1.298023978812301  -1.988366544844581 0.1181164523892848 1.985795232067481  -1.43886208970591 0.5149695080182193 1.569797912004486  -1.36936675165574 0.5445791180649255 2.094601113017113  -1.441353532002964 -0.002342185071706054 1.686018115577875  -1.973204015961851 0.2720641916429689 1.04935599125763  -1.973811255843297 0.2658987816605045 1.52516799132508  -1.873357740944297 0.6809793394824694 1.315280730417338  -1.188860511984403 1.060117160508811 2.563049150981436  -0.6181448518038473 1.361670697378814 2.257069987665449  -0.5260672980891882 0.8472392595660831 2.417582874741109  -1.033679646116655 1.024275855209801 2.145813876738128  -1.514674703827641 0.3918295191835702 2.521219115594658  -1.9147265257177 0.5446047324439067 2.31369071979841  -1.987182279842392 0.1301404967408785 2.419469863729676  -1.961570560806461 0.3901806440322567 3  -1.423509350166563 1.402886612173637 2.399036955962143  -1.245839619965377 1.552394485835316 3  -1.059542960476273 1.69051866591576 2.444231285366565  0.3959736871192822 0.9167757433455479 2.450393920867024  0.3959736871192823 0.9167757433455478 2.007856029557719  1.014116663803043 1.091301493651112 2.474767832486639  -0.6397769089613947 1.885856361599427 2.410835427716981  -0.2308620053190963 -1.551539094294586 1.717794458136412  0.5916715253007025 1.35922078290025 1.616040581602528  0.4218757816223546 1.951955945932026 1.52996483538921  0.8455820105048553 1.804883176334093 1.110887337947722  0.2171273278454561 1.452231135633227 0.7206241776988639  0.5838681171949094 1.350343322085466 0  0.570825861405329 1.906772433206812 0  0.07503473923697349 -0.9926097232320116 3  0.5289722636881395 -0.8456865231038897 3  0.3150958902771757 -1.466099679343499 3  -0.7388634075939597 -1.312816839320978 0  -0.5715818319253561 -1.466126416576961 0.4872632822601926  -0.790979724086402 -1.834068706473131 0  -0.4336968377143349 -1.444224541082522 0  -1.704258405401222 1.033837715886708 2.209211779154401  -1.813533168648966 0.8293990131207396 3  -1.57081860896361 1.223389760977683 3  0.5942163908489371 -1.374481420233743 0  0.7270811635437457 -1.27490888061952 0.5462966671918753  0.9958825989361997 -1.724545838077583 0  0.8720618164091423 -1.226870877129539 0  1.52814208573423 0.1613137918978926 0.5102072734156454  1.931628784137607 0.4888854537001639 0.8268342758254814  1.873050508530103 0.6819921490195341 0  1.779059765191089 0.8938942146969522 0.5856441150032816  -1.438480770485098 -0.07050119218872986 2.438185635059182  -1.513914009740071 -0.2001832623755173 3  -1.479465319414609 0.08365730523362372 3  -1.973204015961851 0.2720641916429692 0.585554881990308  -1.981971206824973 -0.1830494089890101 0.817455436623969  -1.442538962714197 0.1702583109259658 0.9778387525341716  1.13378064835715 1.644358907156259 1.504736713985521  0.9802837104947404 1.015623498320987 1.932926185769896  -0.6020906612473962 -0.7932912835157278 0.5300545641521022  -0.8836349378529436 -0.457975773256652 0.6404787520590902  -1.023790947274213 -0.8542189253140726 0.4828357610848663  -0.602090661247396 -0.793291283515728 0.9479788500445958  0.6403047911642088 -1.885696230283868 3  0.1878647545340524 -1.981496936684592 3  -0.07495270366908996 0.9926178030302176 2.335678285116733  -0.1633239734712831 1.457514625388545 1.969260541812861  0.1736639328492305 1.982895595541155 1.940581159545814  -1.851925440117959 0.7516321667079673 1.81593851648282  0.9314397286268589 1.185469520867052 0  -1.493079834035256 -0.02565043060049582 0.4708275303802578  -1.940494357883519 -0.4596595737911316 0  -1.873203290925756 -0.6814884929589626 0.7907882208455987  -0.9408192553364747 -0.3268406500285767 1.845715925535895  -1.441806623388049 -0.4387237814713535 2.034006661436112  0.6612847082440421 -1.340114905463987 1.108893916461269  0.3402362675669802 -0.9367557391813275 1.488714204061065  0.5360331878793529 1.383554395144927 3  0.5013469316464557 1.927848636129754 3  0.9318504505456354 1.758771734451193 3  -1.429512709177072 -0.3562124671024821 1.118349919785871  0.7623538123515461 -1.256718477748746 2.327019461856683  0.3106111190640441 -0.9457424297310684 2.455385688454125  1.442193373962851 0.348801655142766 0  1.28393644087122 0.6551747871608027 0.5464156047922772  -0.7378844931157909 0.6696040306912336 1.328661823726752  -0.9726455044974873 1.137273922375865 1.073924182966422  -0.4172064841849356 0.905426576866573 1.472187054373984  -0.5041753880756408 0.8589407292555569 0.7961323206085094  -0.4857392175468291 -1.371645797971567 0.9777955730243429  -0.08925624373007968 -0.9912090272966354 1.19456677684017  -0.4903859489869041 -0.8663113380070018 1.393053778537583  -0.1244862568658107 -0.9877391738626058 1.721971119438714  0.06424814067857221 -1.462513542149503 0.8252938567089958  -0.2165167111830255 -1.978674965265306 1.059418840454187  0.08389629142111744 -1.655366426983338 0.4668966795233791  0.791196862407529 -1.833952643622447 0.6178951048582574  0.5289722636881395 -0.8456865231038897 0  -0.8598386698837637 0.5024954593186663 2.384476326122496  -1.415649600564344 1.412463744774179 1.124111047366489  -1.669846618080803 1.098217641777694 1.495259244783022  -1.669846618080803 1.098217641777694 0.7844479410434644  -1.302506330247836 0.7314384720123622 1.10539181245277  -0.9967945349396865 0.03254563292889093 0.6355050416165856  -0.9916319741441293 0.08496199232257164 1.271933936467721  -1.98098155916357 -0.1930974703189275 1.399842543598607  0.03296184272064258 -1.996753541853206 1.470035164610787  -0.8598386698837638 0.5024954593186663 0.7531117329128125  -0.1161671093212523 -1.988558538379005 0.5893077665132739  -0.5709179202917509 -1.906744507448919 0.7425624981256993  0.7876799948882367 0.6089280362230858 0.7814979844598379  -0.1396511336192156 1.472791285825262 3  -0.5135625025850592 1.416926151553228 3  -1.174791349590177 -0.9094291444928995 0.8802318284181406  -0.8667404926794215 -0.4895830570665023 1.393053778537582  -1.392669400495818 0.5227178203765839 0.5650798974098937  -1.524758301142871 1.279514408446921 0  -1.779307272275358 0.8934311615112988 0 
[...]
<PointData  Vectors="f_16"> 
<DataArray  type="Float64"  Name="f_16"  NumberOfComponents="3" format="ascii">3.0448664450202548e-05 7.3610387146177822e-05 -1.8977639736732597e-05  1.9537812081477021e-05 8.2229385088486640e-05 -1.3127248253766992e-05  2.5179948333662064e-05 6.6474899025670248e-05 -1.0811562445925590e-05  4.1244676644975578e-05 5.7756644306245523e-05 -8.6759018436122933e-06  6.9394626279520302e-05 1.3587058582948031e-05 -5.9502690316689549e-06  6.7309101687908679e-05 1.9546392303832884e-05 -1.4611798235192824e-05  6.2133702381108282e-05 3.4388410318472508e-05 -8.5442291304982035e-06  7.8970003205138870e-05 2.8069429139421202e-05 -8.5304298414517708e-06  8.3798617217342231e-05 -2.0789776368547076e-06 5.0120274266868851e-06  7.5805219541694784e-05 -4.4597557572819709e-05 -6.3838205398237834e-07  8.0325584295953120e-05 -2.1911482489730082e-05 1.0598271106033667e-05  7.0762926218615081e-05 -1.3734851839454781e-05 5.6344459697882751e-06  5.8544249418217037e-05 7.1198751188093992e-05 1.6516366009785159e-05  3.6423709260644296e-05 6.3479047435079119e-05 2.6529235670919740e-05  2.8683449652005581e-05 6.7272682139644821e-05 1.5535549426503598e-05  4.1812959823454229e-05 5.7918190147833917e-05 1.2528716889587255e-05  8.5168908179821844e-06 -8.6104896058007458e-05 -1.3429169213204507e-05  1.1206645567202619e-06 -7.2286866361180948e-05 -1.8123750609420064e-05  1.4596758928858072e-05 -7.0960049083080358e-05 -1.7157310027552206e-05  1.7728243131843506e-05 -7.9103677007470109e-05 -2.0372757738113043e-05  1.1102371278534726e-04 -3.2062264522434602e-05 1.3910794707474255e-05  6.7367873282047364e-05 -4.6340442297929469e-05 1.7228158410568471e-05  6.8514600810444393e-05 -4.9368561510605000e-05 9.2175539517390312e-06  -1.8202807806441204e-06 -7.2063121087284260e-05 -1.1242413709197361e-05  -4.9658296347652668e-06 -8.1545605471194780e-05 -1.9865992306453390e-05  -1.7064401237336370e-05 -7.0442903321197615e-05 -1.5925116963754804e-05  9.6765024181345998e-05 -5.9811443919170290e-05 -2.7809063404664647e-05  7.0113323089457909e-05 -4.2733984430174265e-05 -1.9341357223169143e-05  8.1689888745538789e-05 -1.7644186357619887e-05 -2.7123838183826007e-05  7.5961042923902822e-05 -3.5105949105622975e-05 -2.7068254199823933e-05  8.0556546373650376e-05 -1.5164033807705214e-05 -5.1735160489622357e-06  1.0960485845877091e-04 1.0955564027611064e-05 -6.2600489606664726e-06  1.1126069434184913e-04 -2.6361510526824084e-05 3.7656072087290466e-07  1.0727130665582775e-04 -3.2050866370964891e-05 -1.0814455328229820e-05  -3.8027670411174194e-05 7.3929882233309333e-05 -3.7315162231768472e-06  -6.2888252691574776e-05 5.7061212306820834e-05 -1.7840635369044841e-06  -3.9023604935767232e-05 6.0956346814028888e-05 -8.5490937120238356e-06  -4.2486448702013261e-05 5.8853298621923454e-05 -4.4359780246423350e-07  5.5399901830202363e-05 -4.5259477957736108e-05 1.4216046606176987e-05  6.0423533742251155e-05 -3.8020303494580147e-05 2.4852033790046978e-05  6.4971055644969181e-05 -3.1196654419144510e-05 1.5240246530341802e-05  8.4880886261862161e-06 7.9890037554456976e-05 -1.8675548507285710e-05  -7.5965349188649315e-06 7.1228429630286604e-05 -1.3059897567841911e-05  -1.6445662871806669e-05 6.9359787356570185e-05 -2.4853638218398656e-05  3.5660546028068539e-07 7.1029729657803877e-05 -2.5551488594804572e-05  4.0345516307939240e-05 -7.5135162186573882e-05 -5.8118845678423758e-06  2.9620968467020410e-05 -6.5850904557772586e-05 -1.2288121366047391e-06  1.7620234531142002e-05 -6.9998221195424014e-05 -8.0729554632311167e-06  1.5236416434828752e-05 -8.2730255812644968e-05 3.7031861475438583e-08  1.0382364176915962e-04 4.8785839561243756e-05 2.4452215329101618e-05  6.4607882925031508e-05 5.5754386266714776e-05 2.5522511425797986e-05  6.8430567655439046e-05 9.1556128824396153e-05 2.6700858871314240e-05  1.0870872228230396e-04 2.0234114945562593e-05 -1.3979484818513199e-05  8.1009815196443996e-05 2.9905957013350212e-05 -1.7934487315602549e-05  1.0015828147496398e-04 4.6870171330169998e-05 -2.6859263111698348e-05  1.1161110183924811e-04 -6.2188571003925410e-06 -2.7370247113626247e-05  -6.6297117666439640e-05 -5.5434577224634347e-05 -9.0882849379910910e-06  -6.0800183625655609e-05 -3.9452833851963851e-05 -6.3398235768467981e-06  -7.1186283360883903e-05 -4.3433621364289539e-05 -4.1553771870463650e-07  -4.8047404092837733e-05 -5.3898902445520315e-05 -7.3637103918237442e-06  1.1197965374393421e-04 2.1510387958282110e-05 7.3041350238520548e-06  9.4255465510605986e-05 5.8676053020902283e-05 -3.0129268452625339e-06  8.0379041218898124e-05 2.3284542224954131e-05 -8.9534775284480467e-08  -8.9283911817302508e-05 -6.9810947118725309e-05 -2.6343119357619578e-05  -1.1160670417272645e-04 -2.1999289996832080e-05 -2.5162505259540316e-05  -1.0258368556006192e-04 -5.2715505790476748e-05 -1.3061049332138259e-05  -7.5207879369010999e-05 -3.7674577247040219e-05 -1.7354489385698937e-05  -3.0368741834100396e-05 8.0078063477264516e-05 6.5011960291681754e-06  -3.8031484796375433e-06 1.1368965818100692e-04 -2.7651990183517764e-06  2.8666805231667793e-06 8.4180463815893865e-05 3.7106528842225783e-06  -7.2367614119394423e-05 4.5498168058754322e-06 -7.7994665482265921e-06  -7.9484858158925892e-05 2.9567521932092943e-05 -3.2533656355946267e-07  -7.9366633376397620e-05 3.2655766603430839e-05 -9.9653303759615246e-06  -8.8309230461904536e-05 8.6360044512052295e-07 -2.4777312669551861e-06  -7.2118881389719161e-05 1.2009915736735814e-05 8.3438225996788079e-06  -7.2606178363551280e-05 1.0279069668161727e-05 1.6810277011614171e-07  -6.8783986225499197e-05 2.5976707533615196e-05 3.8997333641452903e-06  -6.1681653198568918e-05 5.3784057995817823e-05 -1.8134510154533377e-05  -3.6069128017088070e-05 7.7190048587799038e-05 -1.3222195667734773e-05  -6.0218432577758077e-05 9.5445067437915731e-05 -1.6512564163720024e-05  -6.2418101341884819e-05 6.1173208250185344e-05 -1.1434838204239002e-05  -8.0295673279426327e-05 2.0941181455275906e-05 -1.7297581876277698e-05  -6.9663110165160225e-05 2.0362570170326310e-05 -1.3685968490415881e-05  -7.2212465283471859e-05 4.4770599831906935e-06 -1.5693691699053327e-05  -7.0658942678507547e-05 1.3601062691873656e-05 -2.4937648746044395e-05  -5.1570352586733331e-05 5.0224109774698892e-05 -1.5134977457845845e-05  -4.5710847733304969e-05 5.5619621973568308e-05 -2.5558015382507735e-05  -3.9121466286975618e-05 6.0882904955622344e-05 -1.5937626370961558e-05  4.2169788670895107e-05 1.0480095396665860e-04 -1.8229144487072912e-05  4.3959538252851392e-05 1.0419655426876765e-04 -9.3386726510899346e-06  5.6314357300980608e-05 6.1784496525588687e-05 -1.7307912048606657e-05  -2.4026922879682200e-05 6.7400977282968931e-05 -1.5725041038118673e-05  -1.1863765611118018e-05 -8.1126577896659761e-05 -3.7200810369774883e-06  3.3219584153694541e-05 7.7591755087961324e-05 -2.1388651050357422e-06  1.4684370751447686e-05 7.1272589334621026e-05 -7.6836178386004267e-08  3.0611509110554823e-05 6.5613740285469505e-05 7.2113776421771935e-06  1.2318780577256271e-05 8.6097443858189351e-05 1.3191023598765165e-05  3.3590521461141088e-05 7.9400555118426262e-05 2.5539881977495317e-05  2.0075003869134332e-05 7.0329017049596297e-05 2.6164578782331892e-05  8.7502986795213004e-06 -1.1382160369708914e-04 -2.8459535144064278e-05  5.9110419878530065e-05 -9.7797776712709312e-05 -2.7041744121473265e-05  1.7436331655230257e-05 -8.3837942192086859e-05 -2.6145373057465119e-05  -3.9094396027531056e-05 -6.6129823380581249e-05 3.0118971573410187e-05  -2.8610336546987783e-05 -7.4346299550037386e-05 2.0027086039574970e-05  -2.7805638746282543e-05 -6.0261286263503283e-05 2.5310911690335388e-05  -2.4118844693919677e-05 -7.5157851497316828e-05 2.7847394930560442e-05  -6.1770862225479531e-05 3.7851684354012431e-05 -1.1731117389403492e-05  -6.5659444566836526e-05 2.9326249489456153e-05 -2.4816152684460755e-05  -5.7311290724073315e-05 4.3550926777418943e-05 -2.5691703010117204e-05  3.3467415365111877e-05 -7.5339401633522804e-05 2.4667990377582616e-05  4.2976143920853415e-05 -7.3611022412779000e-05 1.5816306348894581e-05  3.5708500099443598e-05 -6.0202647718751129e-05 2.4856371887153895e-05  4.8292120849517830e-05 -6.6613702941304334e-05 2.5029888040122168e-05  8.2178665610118276e-05 1.0124622964330430e-05 1.6834708566824838e-05  6.8933939088469651e-05 1.8393907706579163e-05 1.1760797001897789e-05  6.6695339195847541e-05 2.6577606198353931e-05 2.5356899285147043e-05  6.2803129996614359e-05 3.2976902607561884e-05 1.6046845361674273e-05  -8.7511049473755370e-05 -4.6262111051547900e-06 -1.5822724415529287e-05  -8.2946764277419538e-05 -1.0692364994233371e-05 -2.5805167910099786e-05  -8.5808897606377995e-05 4.9990631663960206e-06 -2.5322864516270037e-05  -7.2475943199159807e-05 1.1741840503103067e-05 1.6336932756939250e-05  -7.3187352181938983e-05 -5.0274913604805156e-06 1.2230023442838990e-05  -8.7151376735889263e-05 1.1352883681520861e-05 1.0323479126348479e-05  4.0885199467570817e-05 5.9215178523161350e-05 3.5077483893247690e-07  6.0441844835343996e-05 6.3792217132447468e-05 -7.6815365838974673e-06  -6.4081520394565099e-05 -8.7645770235184910e-05 2.7431770055146532e-05  -1.0203853061390497e-04 -4.7079375186708945e-05 2.1626727393287218e-05  -7.0509828954483126e-05 -5.6057038209557414e-05 2.4412617742302508e-05  -6.7516092417691374e-05 -8.7196243069718118e-05 1.5606161697443296e-05  2.3624888440149309e-05 -6.9439624436280038e-05 -2.7994122216247170e-05  6.5033981852891990e-06 -7.3015198967200183e-05 -2.7305610612636453e-05  -8.8002798888535561e-06 1.1272947277102011e-04 -1.5199271453327454e-05  -1.0309220301678649e-05 8.5106609704541515e-05 -8.3166201937083211e-06  5.0615737196473746e-06 7.2141456718184199e-05 -7.2706356230443748e-06  -6.6907564983442397e-05 2.8227855140722369e-05 -4.6973740328598468e-06  5.1375540149641461e-05 6.7339879100021538e-05 2.6025879547064344e-05  -8.5522151136321122e-05 1.1466616437825909e-06 1.9402646431414543e-05  -6.8917822390542361e-05 -1.4570269643070995e-05 2.5904067911135860e-05  -6.9106039325130160e-05 -2.3052245011634999e-05 1.3049923898302025e-05  -1.0704232171410553e-04 -3.8427385606615916e-05 -3.4270637100221419e-06  -8.1132217229023406e-05 -2.5121242954377230e-05 -9.0351395329648594e-06  3.8310693267692213e-05 -7.5511176864769401e-05 5.9088402059867359e-06  4.0133453049976600e-05 -1.0636074916546155e-04 -3.9501510050110613e-07  2.9251005534984267e-05 7.8194036278925614e-05 -2.5210471640297158e-05  1.7133842702221582e-05 6.8534029657053240e-05 -2.5130337974734891e-05  3.2657444089276612e-05 6.2401457150839998e-05 -2.5253679631135665e-05  -8.5005223589046736e-05 -1.9006863850655681e-05 8.0633936441523007e-06  4.4546713759175783e-05 -7.4219438468345604e-05 -1.5360965716966432e-05  3.4535135837018331e-05 -1.0888229691012777e-04 -1.6879838276089848e-05  8.2440137213698767e-05 2.1860061159012798e-05 2.4996918248399148e-05  7.7058978865050776e-05 3.9641021946997275e-05 1.5525993469488141e-05  -8.5806806740215929e-05 7.5659178615319531e-05 3.4414802197322396e-06  -5.5330272254505331e-05 6.5244877619557905e-05 7.7154061341889335e-06  -4.7480853787945155e-05 1.0383359606326641e-04 1.9874370731822482e-07  -5.7064735796588129e-05 9.7898934710008182e-05 1.2905516628329424e-05  -2.8997557570044497e-05 -8.1636027150759765e-05 1.0863037028266693e-05  -1.1781365969327538e-05 -1.1252021116894365e-04 7.6366978203845312e-06  -5.6501940480645869e-05 -9.6415885917438562e-05 4.4131114021204589e-06  -1.4470172168846226e-05 -1.1232304085822182e-04 -3.6533324793367464e-06  4.0219901219238316e-06 -8.4924186141427781e-05 1.2653793131479427e-05  -8.1081162381515479e-06 -7.1191797034765204e-05 7.1875487550745873e-06  4.3002719196010305e-06 -7.7476579713298688e-05 1.7732774948374229e-05  2.8066368375973770e-05 -6.4365172703415111e-05 1.3445305306266661e-05  6.0238125094077107e-05 -9.3171698276921006e-05 2.6160112250551285e-05  -9.9299806659599576e-05 5.7904504284413638e-05 -1.6536958154670950e-05  -5.1308319281109876e-05 5.1750437305326165e-05 6.8470149632336337e-06  -6.0999265496163496e-05 4.0172428922258599e-05 1.7452426624117910e-07  -6.0481194722394356e-05 4.1295623956628414e-05 1.2315460332637602e-05  -7.4508213888242023e-05 4.3011288788049686e-05 6.4280901448397232e-06  -1.1491264376127966e-04 5.5502288859853766e-06 1.7134088641848814e-05  -1.1375043003248208e-04 1.1843878206862967e-05 5.1768873099005459e-06  -7.3308852299986755e-05 -5.5164298643027086e-06 2.8201246418391816e-06  1.2605236517802662e-06 -7.1862375211892695e-05 -4.5867528409044366e-07  -9.8326643313415837e-05 5.7467175182636949e-05 1.3807691162858666e-05  -3.8597503158626287e-06 -7.0273955094118427e-05 1.5223702619207155e-05  -2.0811872422981708e-05 -6.7638835388601792e-05 1.2905856397476325e-05  8.8451326654476306e-05 6.9185774195555384e-05 1.2143558114685408e-05  -8.4015922580317017e-06 8.4254884631148930e-05 -2.5563790756371091e-05  -2.9278398340210053e-05 7.7952780283259922e-05 -2.6353943364714951e-05  -6.8838549835438675e-05 -5.0033701775137554e-05 1.3644198940597027e-05  -1.0061394325547936e-04 -5.4748285459198805e-05 3.9555753108420764e-06  -8.0465942790505668e-05 3.1823026756356886e-05 1.6994089854664942e-05  -5.4891977857104839e-05 4.7965243706418252e-05 2.5583198367992495e-05  -6.4644511563346385e-05 3.3967200397142791e-05 2.6229017980746824e-05  6.5092161959802143e-05 -3.1035982232202417e-05 7.7391279942927378e-06  -5.5833928524542023e-05 -6.4621784936490822e-05 -2.6237794904236286e-05  -3.4425062626445035e-05 -7.4222025695845674e-05 -1.7871503099418403e-05  -4.3501505846414814e-05 -1.0540019944573227e-04 -2.6773777137789036e-05  -4.0083287869517471e-05 -7.3926842637731777e-05 -2.6491933902262033e-05  -6.8683264489855344e-05 2.6670575401426132e-05 1.1778218077175463e-05  -1.3087105727981578e-05 -6.6206597713624820e-05 2.4408563590334623e-05  7.8535528496986997e-05 -1.6733737977497986e-05 1.8465375620728769e-05  7.1644356680324416e-05 1.6175718417644254e-06 1.2225029902594568e-05  -1.0883522934740363e-04 3.1031283828408721e-05 -2.6098725055087946e-05  6.5763878980895678e-05 8.8846281848948920e-05 -2.7631007404675736e-05  4.8142757667129510e-05 6.6215503843018511e-05 -2.5838447054965488e-05  6.1233012338551352e-05 5.5373520678464232e-05 -2.5540740870871687e-05  1.8539079519327741e-05 1.1501932367484033e-04 2.5620377222303763e-05  -5.6804076528858534e-06 8.6898950342398669e-05 2.6243982186249825e-05  -3.6619612342483431e-05 1.0842129915402657e-04 2.6736931033888124e-05  -8.2982509756725420e-06 1.1380906312198406e-04 1.5627393647138135e-05  -7.4537234511845362e-05 -3.2014070749830469e-05 2.0770669390032678e-05  -5.9895313870977767e-05 -3.8078589654813804e-05 1.6960234207201637e-05  -6.9409830977980544e-05 -8.8553740015562301e-05 -5.7016386518556188e-06  -3.6291331778173100e-05 -7.9604464444723856e-05 -1.0593076607179088e-05  7.1134979843290544e-05 8.6385504022647667e-07 -4.5425600373940020e-07  -8.1564925777100644e-05 -1.2624525293733800e-05 2.7547217782896859e-05  5.6218787090034658e-05 9.8663813958238105e-05 3.6064289349213766e-06  4.2464444492560406e-05 7.4120579624922320e-05 9.9186631036881669e-06  6.1362307564796385e-05 3.3619551567999639e-05 -1.6108323207198295e-05  4.9108651117457543e-05 5.1643305474969159e-05 1.6517409829422773e-05  4.8987191516499115e-05 5.3515003855549626e-05 2.6620318772570361e-05  5.7489209142838015e-05 4.3477262605877870e-05 1.7113551448788577e-05  -1.6202875900873260e-05 -1.0859527458106470e-04 1.9963831915073517e-05  3.6259056736304829e-05 -1.0471471144744319e-04 1.4151096811122543e-05  -3.7675697550052274e-05 -6.1407837328259480e-05 -9.8546960951532585e-07  -5.1580860575303338e-05 -6.5624163405705329e-05 5.0736670310800308e-06  -2.0362028609662182e-05 -6.8592914031069497e-05 1.5491151638401705e-06  -3.6158693831520180e-05 6.3295173606132070e-05 1.6192734204281153e-05  -4.9486893460930891e-05 5.3214579867564395e-05 1.5572178664658144e-05  -3.6204775613066903e-05 6.3129763388069051e-05 7.5520139694031259e-06  7.9197580407908564e-05 2.2555934361823379e-05 -2.6010673426467456e-05  -3.9870356566830359e-05 -9.5695301628091547e-05 3.9834072943663030e-05  9.1154627889230079e-06 -1.1034384667726042e-04 2.7539254578772304e-05  -3.3843186218949685e-05 -6.3613848160796305e-05 -1.4091539064120008e-05  -2.6362047679137896e-05 -6.7317577373559518e-05 -2.6796766006747672e-05  -4.0714627344380115e-05 -5.9657683280012745e-05 -2.6209228996084955e-05  -4.6410738291940161e-05 7.2202277700728214e-05 -2.6204752368202528e-05  -3.1438015127305780e-05 6.4728542494574850e-05 -2.6427499919031078e-05  5.6982625736145547e-05 3.9989885074044754e-05 -2.4857132531478331e-05  6.4231465360452486e-05 2.5664951218367610e-05 -2.6121438463470151e-05  -1.0094212011574624e-05 -7.2142483992426135e-05 -2.6952613183607990e-05  2.0762912346446603e-05 6.7993193074602148e-05 -1.6634680585745747e-05  8.5653910166345965e-05 7.1037966990325382e-05 -1.5827028329683552e-05  9.1356329867908089e-06 7.0661373844579662e-05 -1.5491353889710767e-05  -1.1323327323121114e-04 1.0066425833270677e-05 -9.9439491381214348e-06  6.9511972478508995e-05 1.0476679525351228e-05 -2.6065520064554886e-05  8.4635872515828663e-05 -6.6395903566937336e-06 -1.4283358981733662e-05  -5.0107901960416965e-05 -5.1086277231658107e-05 9.6477828435678694e-06  -8.0482738730847198e-05 -2.5662267796956071e-05 -2.5449308967775474e-05  -7.1471012791721926e-05 -1.0619015814531962e-05 -1.5059469572673433e-05  6.4526052382392517e-05 -2.9995192117018305e-05 -1.7833191863453429e-05  6.4973150243390309e-05 -3.0593976346964997e-05 -1.0892887452878262e-05  5.6334888773398878e-05 -4.4548132971652523e-05 -1.6656916156137907e-05  -7.2364006679232336e-05 -2.4443724103236139e-06 -2.6069741545052916e-05  3.1130619794269532e-05 -6.5493142694632956e-05 -1.3837836902938543e-05  -2.3073941977667174e-05 8.1824881762639773e-05 2.6194200354555483e-05  -4.2593824804010488e-05 7.4850777782093630e-05 2.5452292906118115e-05  -3.2687154008429545e-05 8.0442851666176141e-05 1.6873793436299788e-05  -2.9629074723902988e-06 7.2904858549026189e-05 1.5183490153527811e-05  -6.0619523114441647e-05 9.6569701838393923e-05 -7.1543100047525682e-06  -2.4984017755922712e-05 -6.7815207411207323e-05 -7.1754473103085765e-06  -7.1195076246860983e-05 4.8131815548900945e-05 2.5821913983399434e-05  4.2680253611950821e-05 -5.6129839462755322e-05 1.6012593422894058e-05  4.2718322356529612e-05 -5.7230586617131735e-05 9.4190863513544955e-06  -8.3260752675788801e-05 7.9851876708789433e-05 2.4990460664031660e-05  -8.2725777797891176e-05 7.7431440221039009e-05 -2.7632442837261719e-05  -7.2731877506380471e-05 4.3681583852614249e-05 -2.6114362981890596e-05  -6.1750340775558335e-05 5.6583814549561180e-05 -2.6058054935669109e-05  2.0384560150843160e-05 -6.6133019935200922e-05 2.3584370122095102e-05  1.2911323863220474e-05 -6.9768991993961896e-05 1.0385330958732335e-05  7.1916955563188466e-05 4.8781227105119527e-05 4.9332088104543909e-06  7.1693601923819523e-05 -4.7645863604930693e-05 -1.0906113864716540e-05  -8.2710373133616574e-05 2.0313549732615983e-05 -2.6210866451005227e-05  8.2666949667292976e-05 -7.6476879688556378e-05 4.7957469441790735e-06  4.0031952313783004e-06 7.3137754365210477e-05 2.6439817716562945e-05  -4.0908234598672135e-05 -5.1486153709720206e-05 2.4771048313941061e-05  -6.1654437722868561e-05 6.3800569730571090e-05 1.5882268031294701e-05  6.8915173249764659e-05 -1.8280349704305201e-05 -1.7453310213413155e-05  6.7270597345865234e-05 -2.2838134448035327e-05 -2.6627746839050619e-05  1.1873937976002702e-05 7.1558951743224035e-05 1.0276016537719342e-05  4.3942628114214788e-05 1.0437661460368045e-04 1.4265195830900261e-05  1.1342785815371479e-04 -5.1431808346708423e-06 2.5473912727851417e-05  8.4317481490975291e-05 -7.5268010382290377e-07 2.5098134865810356e-05  8.0122026730715802e-05 -7.7265614431992101e-05 -4.9404915791061794e-06  8.0072578075616064e-05 2.2619581900866899e-05 9.5108740601794441e-06  6.3456688044411088e-05 3.3153080871636616e-05 7.4704336384708630e-06  8.0711288694179951e-05 -7.6524666532179738e-05 1.5471305998864341e-05  -6.7499823814068421