<?xml version="1.0"?>
<VTKFile type="UnstructuredGrid"  version="0.1"  >
<UnstructuredGrid>
<Piece  NumberOfPoints="370" NumberOfCells="1211">
<Points>
<DataArray  type="Float64"  NumberOfComponents="3"  format="ascii">0.6305366219362482 1.461672021701259 2.573137157518678  0.3505506524007391 1.439119323266543 2.229124975212371  0.7233515360664949 1.860504275633375 2.143566592013062  1.16929327003969 1.615214451734676 2.02523850809439  1.962734657692562 0.3783613699999914 1.846559366820982  1.91926574085063 0.5296409455353088 2.339697577168066  1.745217422811993 0.9572087840349652 2.004132439917261  1.399310647126385 0.4861101870387526 1.965101941806065  1.491481428815471 -0.04246098436356954 1.192857642755402  1.240992448073932 -0.7277991002123511 1.504890969845327  1.451841918673485 -0.4160870690660196 0.8124817833527678  1.957241061154269 -0.4044530916512841 1.130662055155801  0.850549934291718 1.02575904982513 0.5353204991820871  0.9958825989361937 1.724545838077586 0  0.79119686240752 1.833952643622452 0.6008470958115142  1.190141907336148 1.598104417287793 0.790786027167462  0.1466855526147347 -1.464880016853866 2.2297974104337  0.03653064831300958 -1.996402045182105 2.459535282061257  0.4182078247438861 -1.953068608486724 2.399152904188485  0.3606546971297125 -1.571158736162652 2.586357545217903  0.9545290653659886 -0.2816454632327977 0.6694471130563237  1.285895848641168 -0.9157810167207565 0.4484794291144768  1.191933442830757 -0.8743164676129442 0.903733845483468  -0.04369448314686741 -1.9956964690359 2.079055695557334  -0.08831675386205026 -1.592209287680673 2.5786718043508  -0.4597234839101871 -1.940474970960854 2.365577208844509  0.8599034339052349 -0.5023742943566752 3  1.339634282624336 -0.7964456803802702 2.547452680787598  1.468057415404991 -0.2920147759474656 3  1.371659700543215 -0.6077316139648379 3  1.512588052516405 -0.2740719184538642 1.754192008279186  0.9893257645081893 0.1083773317058151 1.785271323260748  0.9756404903825265 -0.2120504217921436 1.431575385960868  0.9545290653659886 -0.2816454632327976 2.01543266745928  -0.6813513412608918 1.373329703138566 1.700767684044582  -1.111645100464135 1.018766509541888 1.580900689761718  -1.059542960476273 1.69051866591576 1.998542381954114  -1.170945775598536 1.613858275470806 1.514352004916045  1.52494138948322 -1.279291314658712 0.6173649490931152  1.669784403879814 -1.098334036361089 0  1.779059765191092 -0.8938942146969459 0.5606628110678626  0.1821743391565473 1.595435930750562 2.5903667231274  -0.1879604925798806 1.981487507310104 2.257437501874302  -0.4179722159358051 1.953140079637284 3  0.04335340489247286 1.995730062311829 3  0.708221843788238 -1.311703949689869 1.769051025256928  0.7911968624075247 -1.83395264362245 1.495263286014477  0.477219149204427 -1.935167718916343 1.889112662052278  0.2683758495222019 -1.490673620404064 1.475667784107566  0.9025541663092692 0.4225803863622857 0  1.135486067825821 0.947534454009326 0  0.6021968632248157 0.7932041258053155 0  0.9827995192597104 0.1746394117049448 2.234570310665951  1.323841507958512 0.4889974985894576 2.488428520580235  0.9025541663092692 0.4225803863622857 3  0.9955658339392071 -0.04502084354218341 3  -1.126481124092755 -0.9473283376278889 2.074233125962432  -1.664006297246322 -1.10914411354164 1.875888952633512  -1.294582432735519 -0.820629184485212 1.551364336100787  -1.312762776967178 -1.497472070268641 1.943469646961802  0.9807852804032303 0.1950903220161286 1.006853791166158  0.8534608015375593 0.5144276117421314 1.633723584493013  1.430264222105482 0.4050405554365119 1.451769552081978  -0.7740713825566979 -0.6255101783274258 3  -0.9807852804032304 -0.1950903220161286 3  -0.8836349378529437 -0.457975773256652 2.310914062613334  -1.344567555190213 -0.6983284766763056 2.512258555473228  -1.988366544844581 0.1181164523892848 1.985795232067481  -1.43886208970591 0.5149695080182193 1.569797912004486  -1.36936675165574 0.5445791180649255 2.094601113017113  -1.441353532002964 -0.002342185071706054 1.686018115577875  -1.973204015961851 0.2720641916429689 1.04935599125763  -1.973811255843297 0.2658987816605045 1.52516799132508  -1.873357740944297 0.6809793394824694 1.315280730417338  -1.188860511984403 1.060117160508811 2.563049150981436  -0.6181448518038473 1.361670697378814 2.257069987665449  -0.5260672980891882 0.8472392595660831 2.417582874741109  -1.033679646116655 1.024275855209801 2.145813876738128  -1.514674703827641 0.3918295191835702 2.521219115594658  -1.9147265257177 0.5446047324439067 2.31369071979841  -1.987182279842392 0.1301404967408785 2.419469863729676  -1.961570560806461 0.3901806440322567 3  -1.423509350166563 1.402886612173637 2.399036955962143  -1.245839619965377 1.552394485835316 3  -1.059542960476273 1.69051866591576 2.444231285366565  0.3959736871192822 0.9167757433455479 2.450393920867024  0.3959736871192823 0.9167757433455478 2.007856029557719  1.014116663803043 1.091301493651112 2.474767832486639  -0.6397769089613947 1.885856361599427 2.410835427716981  -0.5131581223052614 1.382860631703773 1.129235146161471  -0.02829600397680024 0.9972130868589251 1.611363293353632  0.06779261740588695 1.516765368192542 1.298023978812301  -0.2308620053190963 -1.551539094294586 1.717794458136412  0.2171273278454561 1.452231135633227 0.7206241776988639  0.5838681171949094 1.350343322085466 0  0.570825861405329 1.906772433206812 0  0.07503473923697349 -0.9926097232320116 3  0.5289722636881395 -0.8456865231038897 3  0.3150958902771757 -1.466099679343499 3  -0.7388634075939597 -1.312816839320978 0  -0.5715818319253561 -1.466126416576961 0.4872632822601926  -0.790979724086402 -1.834068706473131 0  -0.4336968377143349 -1.444224541082522 0  -1.704258405401222 1.033837715886708 2.209211779154401  -1.813533168648966 0.8293990131207396 3  -1.57081860896361 1.223389760977683 3  0.5942163908489371 -1.374481420233743 0  0.7270811635437457 -1.27490888061952 0.5462966671918753  0.9958825989361997 -1.724545838077583 0  0.8720618164091423 -1.226870877129539 0  1.52814208573423 0.1613137918978926 0.5102072734156454  1.931628784137607 0.4888854537001639 0.8268342758254814  1.873050508530103 0.6819921490195341 0  1.779059765191089 0.8938942146969522 0.5856441150032816  -1.438480770485098 -0.07050119218872986 2.438185635059182  -1.513914009740071 -0.2001832623755173 3  -1.479465319414609 0.08365730523362372 3  -1.973204015961851 0.2720641916429692 0.585554881990308  -1.981971206824973 -0.1830494089890101 0.817455436623969  -1.442538962714197 0.1702583109259658 0.9778387525341716  0.5916715253007025 1.35922078290025 1.616040581602528  1.13378064835715 1.644358907156259 1.504736713985521  0.9802837104947404 1.015623498320987 1.932926185769896  -0.6020906612473962 -0.7932912835157278 0.5300545641521022  -0.8836349378529436 -0.457975773256652 0.6404787520590902  -1.023790947274213 -0.8542189253140726 0.4828357610848663  -0.602090661247396 -0.793291283515728 0.9479788500445958  0.6403047911642088 -1.885696230283868 3  0.1878647545340524 -1.981496936684592 3  -0.07495270366908996 0.9926178030302176 2.335678285116733  -0.1633239734712831 1.457514625388545 1.969260541812861  0.1736639328492305 1.982895595541155 1.940581159545814  -1.851925440117959 0.7516321667079673 1.81593851648282  0.9314397286268589 1.185469520867052 0  -1.493079834035256 -0.02565043060049582 0.4708275303802578  -1.940494357883519 -0.4596595737911316 0  -1.873203290925756 -0.6814884929589626 0.7907882208455987  -0.9408192553364747 -0.3268406500285767 1.845715925535895  -1.441806623388049 -0.4387237814713535 2.034006661436112  0.6612847082440421 -1.340114905463987 1.108893916461269  0.3402362675669802 -0.9367557391813275 1.488714204061065  0.5360331878793529 1.383554395144927 3  0.5013469316464557 1.927848636129754 3  0.9318504505456354 1.758771734451193 3  -1.429512709177072 -0.3562124671024821 1.118349919785871  0.7623538123515461 -1.256718477748746 2.327019461856683  0.3106111190640441 -0.9457424297310684 2.455385688454125  1.442193373962851 0.348801655142766 0  1.28393644087122 0.6551747871608027 0.5464156047922772  -0.7378844931157909 0.6696040306912336 1.328661823726752  -0.9726455044974873 1.137273922375865 1.073924182966422  -0.4172064841849356 0.905426576866573 1.472187054373984  -0.5041753880756408 0.8589407292555569 0.7961323206085094  1.190141907336153 -1.598104417287789 0.4925706892513765  0.791196862407529 -1.833952643622447 0.6178951048582574  1.190141907336153 -1.598104417287789 0.8563357173958452  -0.4857392175468291 -1.371645797971567 0.9777955730243429  -0.08925624373007968 -0.9912090272966354 1.19456677684017  -0.4903859489869041 -0.8663113380070018 1.393053778537583  -0.1244862568658107 -0.9877391738626058 1.721971119438714  0.4218757816223546 1.951955945932026 1.52996483538921  0.06424814067857221 -1.462513542149503 0.8252938567089958  -0.2165167111830255 -1.978674965265306 1.059418840454187  0.08389629142111744 -1.655366426983338 0.4668966795233791  0.5289722636881395 -0.8456865231038897 0  -0.8598386698837637 0.5024954593186663 2.384476326122496  -1.415649600564344 1.412463744774179 1.124111047366489  -1.669846618080803 1.098217641777694 1.495259244783022  -1.669846618080803 1.098217641777694 0.7844479410434644  -1.302506330247836 0.7314384720123622 1.10539181245277  -0.9967945349396865 0.03254563292889093 0.6355050416165856  -0.9916319741441293 0.08496199232257164 1.271933936467721  -1.98098155916357 -0.1930974703189275 1.399842543598607  0.03296184272064258 -1.996753541853206 1.470035164610787  -0.8598386698837638 0.5024954593186663 0.7531117329128125  -0.1161671093212523 -1.988558538379005 0.5893077665132739  -0.5709179202917509 -1.906744507448919 0.7425624981256993  0.7876799948882367 0.6089280362230858 0.7814979844598379  -1.174791349590177 -0.9094291444928995 0.8802318284181406  -0.8667404926794215 -0.4895830570665023 1.393053778537582  -1.392669400495818 0.5227178203765839 0.5650798974098937  -1.524758301142871 1.279514408446921 0  -1.779307272275358 0.8934311615112988 0  1.779059765191092 -0.89
[...]
<PointData  Vectors="f_37"> 
<DataArray  type="Float64"  Name="f_37"  NumberOfComponents="3" format="ascii">3.0448498672078640e-05 7.3610067391246292e-05 -1.8977851617764675e-05  1.9537799872832150e-05 8.2229152757137697e-05 -1.3127424005606186e-05  2.5179840594171808e-05 6.6474589125321593e-05 -1.0811706780785950e-05  4.1244473135101857e-05 5.7756355160165452e-05 -8.6759927752174395e-06  6.9394400923851064e-05 1.3587053030850662e-05 -5.9502993673461743e-06  6.7308754303962092e-05 1.9546375298804595e-05 -1.4611903503247112e-05  6.2133423923598370e-05 3.4388243522190013e-05 -8.5443027573706415e-06  7.8969756546203460e-05 2.8069358083013580e-05 -8.5305266743876445e-06  8.3798398816020599e-05 -2.0789821711561138e-06 5.0121108445065831e-06  7.5805102958788437e-05 -4.4597536102338324e-05 -6.3830578243230328e-07  8.0325404620040206e-05 -2.1911376820158079e-05 1.0598391769453286e-05  7.0762759309957491e-05 -1.3734863702932821e-05 5.6344920576551566e-06  5.8544130985433702e-05 7.1198458212391253e-05 1.6516554604898172e-05  3.6423585035826336e-05 6.3478626152182747e-05 2.6529452984506956e-05  2.8683373216796680e-05 6.7272344747381889e-05 1.5535594210716425e-05  4.1812689463218856e-05 5.7917833874264575e-05 1.2528808720430283e-05  8.5169067970248161e-06 -8.6104685948957616e-05 -1.3429296267491645e-05  1.1206588019674324e-06 -7.2286536654160745e-05 -1.8123932886475235e-05  1.4596703156085997e-05 -7.0959736713880855e-05 -1.7157470851562101e-05  1.7728161280451915e-05 -7.9103354689804089e-05 -2.0372944370600323e-05  1.1102357884754524e-04 -3.2062237554262888e-05 1.3911028844516276e-05  6.7367759067318828e-05 -4.6340331946911588e-05 1.7228344429662205e-05  6.8514399174586318e-05 -4.9368406740960207e-05 9.2176535302259804e-06  -1.8202761792661607e-06 -7.2062816799045232e-05 -1.1242539744004499e-05  -4.9657694161671602e-06 -8.1545302612296488e-05 -1.9866198254035980e-05  -1.7064327396876755e-05 -7.0442568188031605e-05 -1.5925250501890523e-05  9.6764653024934743e-05 -5.9811288450122139e-05 -2.7809465799130306e-05  7.0113076987251004e-05 -4.2733833445068960e-05 -1.9341523680380537e-05  8.1689584456999138e-05 -1.7644143468484694e-05 -2.7124112041110998e-05  7.5960763948429308e-05 -3.5105834827743030e-05 -2.7068499519768193e-05  8.0556303893330075e-05 -1.5164042876474488e-05 -5.1735161776979545e-06  1.0960435425371060e-04 1.0955359007730197e-05 -6.2601698143395101e-06  1.1126052904608652e-04 -2.6361474221836781e-05 3.7658302948569529e-07  1.0727097835519007e-04 -3.2050700885061645e-05 -1.0814570413294508e-05  -3.8027639044205614e-05 7.3929610329669958e-05 -3.7315888568723078e-06  -6.2888122365441468e-05 5.7061000781413401e-05 -1.7841304999065448e-06  -3.9023475470419305e-05 6.0956109077433769e-05 -8.5491628342696198e-06  -4.2486310366355655e-05 5.8853072845605809e-05 -4.4364111619651820e-07  5.5399703060970433e-05 -4.5259330968743488e-05 1.4216255919447100e-05  6.0423368017390685e-05 -3.8020141671614366e-05 2.4852340387410161e-05  6.4970848071529570e-05 -3.1196539523879631e-05 1.5240445346873181e-05  8.4881018314718817e-06 7.9889749010812283e-05 -1.8675734429746260e-05  -7.5965327312386781e-06 7.1228099600434782e-05 -1.3060017976876827e-05  -1.6445656720878950e-05 6.9359488251247766e-05 -2.4853793508542210e-05  3.5659774111061834e-07 7.1029410133426231e-05 -2.5551733519238307e-05  4.0345383640656021e-05 -7.5134974140699681e-05 -5.8119355862182341e-06  2.9620928382257830e-05 -6.5850639275943123e-05 -1.2287979557391102e-06  1.7620210799074645e-05 -6.9997938214780362e-05 -8.0730063097176617e-06  1.5236392089363939e-05 -8.2730006195301734e-05 3.7031106101927859e-08  1.0382336771768054e-04 4.8785484935935200e-05 2.4452524813229450e-05  6.4607503657407135e-05 5.5754061335080307e-05 2.5522721616467597e-05  6.8430211575523615e-05 9.1555630103594301e-05 2.6701351382841766e-05  1.0870825387528511e-04 2.0234098859954422e-05 -1.3979663048349921e-05  8.1009561770022031e-05 2.9905855553201590e-05 -1.7934662582821849e-05  1.0015782027860324e-04 4.6870028111721721e-05 -2.6859630083397775e-05  1.1161069688179250e-04 -6.2188433802527139e-06 -2.7370563225017684e-05  -6.6296899834903926e-05 -5.5434443662685608e-05 -9.0883523091086919e-06  -6.0799913408509187e-05 -3.9452700018616716e-05 -6.3399552219939927e-06  -7.1186036157572331e-05 -4.3433417807362230e-05 -4.1562817393120411e-07  -4.8047118629300166e-05 -5.3898673883851232e-05 -7.3638056725632692e-06  1.1197947262328337e-04 2.1510196856456323e-05 7.3041947354740720e-06  9.4255086508282212e-05 5.8675715926590177e-05 -3.0129285014279811e-06  8.0378805471724009e-05 2.3284456107627232e-05 -8.9547411200581594e-08  -8.9283614738588070e-05 -6.9810569519242487e-05 -2.6343432139241683e-05  -1.1160624181298977e-04 -2.1999166092209079e-05 -2.5162767087859677e-05  -1.0258343114560376e-04 -5.2715455219816512e-05 -1.3061175107208260e-05  -7.5207606773452623e-05 -3.7674336871267202e-05 -1.7354676680312034e-05  -7.2367235906524235e-05 4.5497923030317728e-06 -7.7995056962833740e-06  -7.9484671583521365e-05 2.9567519472278059e-05 -3.2532388257822011e-07  -7.9366341922953830e-05 3.2655763916060947e-05 -9.9654108119889532e-06  -8.8309016113548752e-05 8.6362357977823297e-07 -2.4777600146211718e-06  -7.2118562332329278e-05 1.2009919463585156e-05 8.3439243665573336e-06  -7.2605890416029998e-05 1.0278982235576897e-05 1.6813349296758860e-07  -6.8783766828058377e-05 2.5976625041053857e-05 3.8998200865681123e-06  -6.1681484837111710e-05 5.3783882494737141e-05 -1.8134640324834303e-05  -3.6069063425387504e-05 7.7189821232844134e-05 -1.3222319728586014e-05  -6.0218210984329147e-05 9.5444688329909296e-05 -1.6512796352791951e-05  -6.2417988762132834e-05 6.1173068100047566e-05 -1.1434945043315790e-05  -8.0295401741731356e-05 2.0941108878179748e-05 -1.7297703443453671e-05  -6.9662780930665022e-05 2.0362526591882515e-05 -1.3686033739612347e-05  -7.2212080596361540e-05 4.4769949204898153e-06 -1.5693829647805002e-05  -7.0658557089715951e-05 1.3600945089769340e-05 -2.4937764540731954e-05  -5.1570113810431866e-05 5.0223872721128434e-05 -1.5135027978455251e-05  -4.5710659146489202e-05 5.5619311274689046e-05 -2.5558171028370267e-05  -3.9121329049922543e-05 6.0882646044552542e-05 -1.5937700895297588e-05  4.2169546055684884e-05 1.0480083302531266e-04 -1.8229509536598167e-05  4.3959289823804377e-05 1.0419639724117125e-04 -9.3388173557980742e-06  5.6314155565920785e-05 6.1784343406037551e-05 -1.7308115820188155e-05  -2.4026863469223748e-05 6.7400668953474224e-05 -1.5725173944761690e-05  -3.0368728974779511e-05 8.0077798187983644e-05 6.5012521780977653e-06  -3.8032179858096349e-06 1.1368930541849926e-04 -2.7652582538213040e-06  2.8666577464051797e-06 8.4180184322112176e-05 3.7106779569639662e-06  -1.1863688287717043e-05 -8.1126294796371012e-05 -3.7201209989604302e-06  1.2318746829233699e-05 8.6097199216965081e-05 1.3191150623610042e-05  3.3590399532971636e-05 7.9400104000159578e-05 2.5540058582498464e-05  2.0074852036656735e-05 7.0328571639445342e-05 2.6164736465476082e-05  8.7503086377316482e-06 -1.1382113175971521e-04 -2.8459996456974659e-05  5.9110165143487726e-05 -9.7797541735881590e-05 -2.7042084427392065e-05  1.7436246775663303e-05 -8.3837626340039326e-05 -2.6145540505395003e-05  -3.9094160107882697e-05 -6.6129551371145833e-05 3.0119165763932546e-05  -2.8610174497793513e-05 -7.4345990267475924e-05 2.0027251739905671e-05  -2.7805477597933623e-05 -6.0260902527253896e-05 2.5311147155022284e-05  -2.4118732453210532e-05 -7.5157514339199119e-05 2.7847596232810045e-05  -6.1770562040190525e-05 3.7851545687538647e-05 -1.1731163304544209e-05  -6.5659111853729976e-05 2.9326070498987883e-05 -2.4816227479905905e-05  -5.7310998340274780e-05 4.3550656268884561e-05 -2.5691884369903838e-05  3.3467329146646499e-05 -7.5339069799449550e-05 2.4668188856343001e-05  4.2976049632021058e-05 -7.3610813468616545e-05 1.5816464484747352e-05  3.5708385350706942e-05 -6.0202347660526802e-05 2.4856655029831801e-05  4.8291936981230006e-05 -6.6613473854918961e-05 2.5030149585726129e-05  8.2178402633568723e-05 1.0124581456021479e-05 1.6834876188951185e-05  6.8933666913330969e-05 1.8393807533952086e-05 1.1760916935967900e-05  6.6694947622724480e-05 2.6577458484236463e-05 2.5357021998875579e-05  6.2802750624231743e-05 3.2976683815657362e-05 1.6046968465071459e-05  -8.7510776330657726e-05 -4.6262346334171032e-06 -1.5822853076608674e-05  -8.2946404802246480e-05 -1.0692268371894186e-05 -2.5805406952584974e-05  -8.5808560015674501e-05 4.9990751340672654e-06 -2.5323043587615869e-05  -7.2475705926087577e-05 1.1741834549549570e-05 1.6337123206396094e-05  -7.3187086438000342e-05 -5.0274592764542720e-06 1.2230120104873158e-05  -8.7151195809203141e-05 1.1352820705814925e-05 1.0323600019134785e-05  3.3219481670471813e-05 7.7591441833483899e-05 -2.1389411350577577e-06  4.0885032368372514e-05 5.9214903327308665e-05 3.5076225803268947e-07  6.0441656806610964e-05 6.3792048857675272e-05 -7.6816077358223259e-06  -6.4081210406998043e-05 -8.7645528403603159e-05 2.7432050001409938e-05  -1.0203824494919004e-04 -4.7079082086900937e-05 2.1627000804713492e-05  -7.0509584071006145e-05 -5.6056854975455857e-05 2.4412799688586580e-05  -6.7515912167661832e-05 -8.7195900948551231e-05 1.5606300104757057e-05  2.3624828790122590e-05 -6.9439353181373792e-05 -2.7994418845293491e-05  6.5033518671291389e-06 -7.3014911437654004e-05 -2.7305804793754537e-05  -8.8002115875251552e-06 1.1272911385203156e-04 -1.5199451639127635e-05  -1.0309226609771791e-05 8.5106342125135793e-05 -8.3167055656989158e-06  5.0615137329614391e-06 7.2141181686502634e-05 -7.2707184739628563e-06  -6.6907333300669916e-05 2.8227789388795137e-05 -4.6973643710699748e-06  5.1375282597734027e-05 6.7339515227895911e-05 2.6026156442348518e-05  -8.5521925906023642e-05 1.1467460467140694e-06 1.9402864643763602e-05  -6.8917520288504355e-05 -1.4570128186160477e-05 2.5904257900546403e-05  -6.9105826994122837e-05 -2.3052099655942998e-05 1.3050008781181976e-05  -1.0704199631047364e-04 -3.8427336580640952e-05 -3.4269584924072218e-06  -8.1131908863577219e-05 -2.5121308718699427e-05 -9.0352885641055066e-06  3.8310625583094662e-05 -7.5510992668200677e-05 5.9089257222418222e-06  4.0133453857103420e-05 -1.0636032058027931e-04 -3.9503390092971630e-07  2.9250869211415358e-05 7.8193744220296732e-05 -2.5210673581282813e-05  1.7133781992463280e-05 6.8533712265459763e-05 -2.5130522551988268e-05  3.2657331567962128e-05 6.2401172721432481e-05 -2.5253894218351801e-05  -8.5005022819480074e-05 -1.9006736205303050e-05 8.0634218937381412e-06  4.4546595195923238e-05 -7.4219260038551688e-05 -1.5361087610668778e-05  3.4535010050646378e-05 -1.0888196065901027e-04 -1.6880094180589421e-05  8.2439863918385521e-05 2.1859987875495316e-05 2.4997103125095846e-05  7.7058788890262340e-05 3.9640779854342717e-05 1.5526072412801016e-05  -8.5806531193617180e-05 7.5658988255788631e-05 3.4416448409184004e-06  -5.5330146659176266e-05 6.5244726457509464e-05 7.7154995272167792e-06  -4.7480690660638469e-05 1.0383335695753897e-04 1.9877713909671524e-07  -5.7064544075483764e-05 9.7898506399508105e-05 1.2905787648712948e-05  4.2680067737596088e-05 -5.6129566743451801e-05 1.6012771255340756e-05  2.8066241012501259e-05 -6.4364895712049557e-05 1.3445419959720466e-05  4.2718116283960942e-05 -5.7230348730932734e-05 9.4192083130107390e-06  -2.8997466161100342e-05 -8.1635835045476858e-05 1.0863111259398227e-05  -1.1781470728972308e-05 -1.1251987533884642e-04 7.6368327524900574e-06  -5.6501742626797330e-05 -9.6415408561663834e-05 4.4131811621925556e-06  -1.4470167419639069e-05 -1.1232255181065209e-04 -3.6534256945619982e-06  1.4684324162577613e-05 7.1272299033659723e-05 -7.6878842248539166e-08  4.0219678899331267e-06 -8.4923911418177176e-05 1.2653928495549615e-05  -8.1081385175881155e-06 -7.1191470150918919e-05 7.1875953012330012e-06  4.3002937761629933e-06 -7.7476297280110605e-05 1.7732960692052445e-05  6.0238020513041523e-05 -9.3171190101529292e-05 2.6160493315286367e-05  -9.9299541592545468e-05 5.7904264668740944e-05 -1.6537205112753453e-05  -5.1308153962397116e-05 5.1750291438684394e-05 6.8470681283222076e-06  -6.0999066498078938e-05 4.0172280415326824e-05 1.7454595852381985e-07  -6.0480984706025166e-05 4.1295517287102561e-05 1.2315555426465153e-05  -7.4508032088178372e-05 4.3011241156523494e-05 6.4280964301177023e-06  -1.1491240688340945e-04 5.5503280659442991e-06 1.7134242280232920e-05  -1.1375008743649575e-04 1.1844029232301479e-05 5.1769604800910996e-06  -7.3308632532364726e-05 -5.5163831456855923e-06 2.8201931124481538e-06  1.2605350880584341e-06 -7.1862084530673772e-05 -4.5868563755505634e-07  -9.8326316893137131e-05 5.7466871436920971e-05 1.3807948036982826e-05  -3.8596921846088220e-06 -7.0273607659972236e-05 1.5223851937018462e-05  -2.0811797363788414e-05 -6.7638508306424247e-05 1.2905923741448619e-05  8.8450904578274639e-05 6.9185375555043778e-05 1.2143695402968832e-05  -6.8838397634144707e-05 -5.0033492313063749e-05 1.3644230742964234e-05  -1.0061372878393508e-04 -5.4748200727718631e-05 3.9556089095615573e-06  -8.0465762898411459e-05 3.1822993009807474e-05 1.6994315792493379e-05  -5.4891767799936762e-05 4.7965105179240235e-05 2.5583418879156556e-05  -6.4644257804636213e-05 3.3967109810416513e-05 2.6229341052564420e-05  6.5091977793199223e-05 -3.1035806876791371e-05 7.7392737565197723e-06  -5.5833644781539588e-05 -6.4621590417460545e-05 -2.6238073382176199e-05  -3.4424900376155341e-05 -7.4221817708483193e-05 -1.7871626423282158e-05  -4.3501225518958660e-05 -1.0539984913610148e-04 -2.6774238654658262e-05  -4.0083100785729699e-05 -7.3926540476193731e-05 -2.6492181270442419e-05  -6.8683035009602306e-05 2.6670545035392971e-05 1.1778324057524731e-05  3.0611432875588810e-05 6.5613436417551291e-05 7.2113932282183055e-06  -1.3087026307761032e-05 -6.6206196641405669e-05 2.4408707591919114e-05  7.8535300217325222e-05 -1.6733682871885483e-05 1.8465574278459243e-05  7.1644141086388402e-05 1.6176003198062195e-06 1.2225196730465969e-05  -1.0883475113318768e-04 3.1031085357224227e-05 -2.6099048741201273e-05  6.5763438611209134e-05 8.8845946520029232e-05 -2.7631407824156275e-05  4.8142568047302109e-05 6.6215191673048149e-05 -2.5838697763657514e-05  6.1232731427515261e-05 5.5373307104028019e-05 -2.5540949255148474e-05  1.8538996917181643e-05 1.1501888900872638e-04 2.5620765287936126e-05  -5.6804311874988935e-06 8.6898630826846103e-05 2.6244252125380172e-05  -3.6619478844668902e-05 1.0842078004026718e-04 2.6737362767577823e-05  -8.2982890879298225e-06 1.1380872246266527e-04 1.5627669974294018e-05  -7.4536941601121176e-05 -3.2013877123189164e-05 2.0770880324087708e-05  -5.9895009766832405e-05 -3.8078397554503820e-05 1.6960419910992916e-05  -6.9409648112487451e-05 -8.8553408515017933e-05 -5.7018180980202445e-06  -3.6291286326007231e-05 -7.9604274906209523e-05 -1.0593227231713988e-05  7.1134739063608571e-05 8.6382109205003482e-07 -4.5422763475021492e-07  -8.1564688839398737e-05 -1.2624446173895496e-05 2.7547479036415555e-05  5.6218533167997127e-05 9.8663581579916835e-05 3.6064586179176190e-06  4.2464188084486169e-05 7.4120319217408368e-05 9.9187965170560361e-06  6.1362000243286632e-05 3.3619376491112881e-05 -1.6108457354948966e-05  4.9108336526733744e-05 5.1642964676970282e-05 1.6517536683475860e-05  4.8986863367036488e-05 5.3514615984946796e-05 2.6620510181618749e-05  5.7488907101511054e-05 4.3477044383315556e-05 1.7113657998289400e-05  -1.6202660289315688e-05 -1.0859471675779360e-04 1.9964025944393298e-05  3.6259049284636152e-05 -1.0471412607267316e-04 1.4151334381055262e-05  -3.7675570593044839e-05 -6.1407557515383309e-05 -9.8552947163040215e-07  -5.1580653908722137e-05 -6.5623968118760754e-05 5.0736700286729782e-06  -2.0361834317009282e-05 -6.8592561926511192e-05 1.5490804050929359e-06  -3.6158557425217958e-05 6.3294900311365614e-05 1.6192862098001256e-05  -4.9486700360022316e-05 5.3214351020243683e-05 1.5572328666768469e-05  -3.6204655071694569e-05 6.3129533522894454e-05 7.5520473673760439e-06  7.9197227469612598e-05 2.2555848377331263e-05 -2.6010867273492673e-05  -3.9870136845309813e-05 -9.5694846003871716e-05 3.9834334951695800e-05  9.1154814597333365e-06 -1.1034343940674005e-04 2.7539502021222283e-05  -3.3842999306491044e-05 -6.3613586106602246e-05 -1.4091627844082135e-05  -2.6361887846191386e-05 -6.7317242158211444e-05 -2.6797016034222504e-05  -4.0714374978367608e-05 -5.9657401890217044e-05 -2.6209442741361330e-05  -4.6410579029909026e-05 7.2202031925359570e-05 -2.6204992186431466e-05  -3.1437840616807761e-05 6.4728235180548898e-05 -2.6427732535441695e-05  -2.9278243099865084e-05 7.7952447087529652e-05 -2.6354215363190882e-05  5.6982345707774850e-05 3.9989641819459239e-05 -2.4857273153148185e-05  6.4231100563166669e-05 2.5664799079445107e-05 -2.6121692350944672e-05  -1.0094129423492513e-05 -7.2142145307859767e-05 -2.6952792593602961e-05  2.0762796263539031e-05 6.7992896314221935e-05 -1.6634865949709163e-05  8.5653563920114938e-05 7.1037725864785112e-05 -1.5827227121598482e-05  9.1355979830567464e-06 7.0661033801595955e-05 -1.5491524872192578e-05  -1.1323273170248125e-04 1.0066526419239950e-05 -9.9440588005655112e-06  6.9511654564514413e-05 1.0476621925656465e-05 -2.6065685478726422e-05  8.4635621547285745e-05 -6.6395663902595124e-06 -1.4283484847227134e-05  -5.0107690502112289e-05 -5.1086025246836114e-05 9.6478396068440608e-06  -8.0482377651459536e-05 -2.5662156159072712e-05 -2.5449534833677322e-05  -7.1470610710041787e-05 -1.0618947011207987e-05 -1.5059602058544254e-05  6.4525712952885527e-05 -2.9995059688808231e-05 -1.7833285788112458e-05  6.4972891482489785e-05 -3.0593955669831685e-05 -1.0892913580392352e-05  5.6334639623567036e-05 -4.4547956939936145e-05 -1.6656991484974903e-05  -7.2363616641068121e-05 -2.4443950359025337e-06 -2.6069975288879066e-05  3.1130573181803658e-05 -6.5492874906094217e-05 -1.3837957006230459e-05  -3.2687114370142799e-05 8.0442614195963498e-05 1.6873954440849362e-05  -8.3260675127518221e-05 7.9851561741142336e-05 2.4990707445772458e-05  -2.3073885408741907e-05 8.1824553063204291e-05 2.6194460350680743e-05  -4.2593694262711560e-05 7.4850507381119354e-05 2.5452488623186423e-05  -2.9629215854983894e-06 7.2904510364292838e-05 1.5183565392865965e-05  -7.1194891054164898e-05 4.8131688252221684e-05 2.5822142501083559e-05  -6.0619364336978240e-05 9.6569452715385352e-05 -7.1543980529085434e-06  -2.4983905000959387e-05 -6.7814949840085814e-05 -7.1755507559542620e-06  -8.4015075790490699e-06 8.4254653736615213e-05 -2.5563979019803719e-05  -8.2725475306347535e-05 7.7431102215809070e-05 -2.7632837689254374e-05  -7.2731508859266754e-05 4.3681388718207624e-05 -2.6114623929762633e-05  -6.1750075798620307e-05 5.6583550795521927e-05 -2.6058271609024388e-05  2.0384509117399714e-05 -6.6132639754485685e-05 2.3584527743253144e-05  1.2911247766283585e-05 -6.9768692858529989e-05 1.0385443327462134e-05  7.1916771868848182e-05 4.8781001254361055e-05 4.9332763981999862e-06  7.1693379102291435e-05 -4.7645743072416033e-05 -1.0906178947898737e-05  -8.2709999148901470e-05 2.0313486848026950e-05 -2.6211108263349512e-05  8.2666859250122427e-05 -7.6476410007805855e-05 4.7958401862996140e-06  4.0031851251867413e-06 7.3137343046932618e-05 2.6440026641744675e-05  -4.0907949112174046e-05 -5.1485743836336126e-05 2.4771119020138225e-05  -6.1654329268367390e-05 6.3800427771880952e-05 1.5882413122511560e-05  6.8914908197662336e-05 -1.8280265513263141e-05 -1.7453417445536208e-05  6.7270252024204685e-05 -2.2838039952195446e-05 -2.6627955503114867e-05  1.1873841441813966e-05 7.1558600043503432e-05 1.0276051582401585e-05  4.3942513577949401e-05 1.0437625367775238e-04 1.4265416798804259e-05  1.1342749733142171e-04 -5.1433647501060341e-06 2.5474206755311914e-05  8.4317218100670742e-05 -7.5269362976678778e-07 2.5098368376410006e-05  8.0121744209710703e-05 -7.7265350168243712e-05 -4.9405338063608805e-06  8.0072325738047092e-05 2.2619452081320338e-05 9.5109692040659065e-06  6.3456435303322207e-05 3.3152975626072176e-05 7.4704858511673275e-06  8.0711046046082969e-05 -7.6524257443983735e-05 1.5471506260855260e-05  -6.7499555455225732