<?xml version="1.0"?>
<VTKFile type="UnstructuredGrid"  version="0.1"  >
<UnstructuredGrid>
<Piece  NumberOfPoints="370" NumberOfCells="1211">
<Points>
<DataArray  type="Float64"  NumberOfComponents="3"  format="ascii">-1.873357740944297 0.6809793394824694 1.315280730417338  -1.875730638840034 0.6731569434453054 0.8174554366239695  -1.669846618080803 1.098217641777694 0.7844479410434644  -1.302506330247836 0.7314384720123622 1.10539181245277  0.5289722636881395 -0.8456865231038897 3  0.3606546971297125 -1.571158736162652 2.586357545217903  0.3106111190640441 -0.9457424297310684 2.455385688454125  0.7623538123515461 -1.256718477748746 2.327019461856683  -1.415649600564344 1.412463744774179 1.124111047366489  -1.111645100464135 1.018766509541888 1.580900689761718  -0.9726455044974873 1.137273922375865 1.073924182966422  0.06424814067857221 -1.462513542149503 0.8252938567089958  -0.2165167111830255 -1.978674965265306 1.059418840454187  0.2683758495222019 -1.490673620404064 1.475667784107566  -0.4857392175468291 -1.371645797971567 0.9777955730243429  1.962734657692562 0.3783613699999914 1.846559366820982  1.91926574085063 0.5296409455353088 2.339697577168066  1.745217422811993 0.9572087840349652 2.004132439917261  1.399310647126385 0.4861101870387528 1.965101941806065  1.491481428815471 -0.04246098436356954 1.192857642755401  1.240992448073932 -0.7277991002123511 1.504890969845327  1.451841918673485 -0.4160870690660197 0.8124817833527678  1.957241061154269 -0.4044530916512845 1.130662055155801  -0.5131581223052615 1.382860631703773 1.129235146161471  0.2171273278454561 1.452231135633227 0.7206241776988639  -0.5469942367349582 1.360514599575593 0.5403398490353799  -0.06997646010378458 1.993107920242412 0.6253820182263208  -0.8598386698837637 0.5024954593186663 2.384476326122496  -0.9916319741441293 0.08496199232257141 2.100102294688029  -1.514674703827641 0.3918295191835702 2.521219115594658  -1.36936675165574 0.5445791180649255 2.094601113017113  1.468057415404991 -0.2920147759474656 3  1.926454636254942 -0.5059423333770237 2.481031809468046  1.98434356181004 -0.1589624846057301 3  1.894126711453047 -0.6125132192606522 3  -0.08925624373007968 -0.9912090272966354 1.19456677684017  0.6612847082440414 -1.340114905463987 1.108893916461269  0.3106111190640441 -0.9457424297310684 0.7462197467252456  0.3402362675669802 -0.9367557391813277 1.488714204061065  -0.980070800056786 -1.125754826208231 3  -0.6770621552545111 -1.440335389723069 2.547962905353221  -0.3959824170308197 -0.9167710771106152 3  -0.7190450405593261 -1.327004400341191 3  -0.7796355259073547 1.24842396803037 3  -0.6181448518038473 1.361670697378814 2.257069987665449  -0.8550118724769616 1.799842810099524 3  -0.5135625025850592 1.416926151553228 3  0.3505506524007391 1.439119323266543 2.229124975212371  0.3959736871192823 0.9167757433455478 2.007856029557719  -0.07495270366908996 0.9926178030302176 2.335678285116733  -0.1633239734712832 1.457514625388545 1.969260541812861  -1.126481124092755 -0.9473283376278889 2.074233125962432  -0.9408192553364747 -0.3268406500285767 1.845715925535895  -1.294582432735519 -0.820629184485212 1.551364336100787  -1.441806623388049 -0.4387237814713535 2.034006661436112  -0.5260672980891882 0.8472392595660831 2.417582874741109  -0.5290376234122415 0.8456515876035146 1.875878641463117  -1.033679646116655 1.024275855209801 2.145813876738128  0.7740888140987818 0.62548893793194 2.335520588439736  0.9025541663092692 0.4225803863622857 3  1.323841507958512 0.4889974985894577 2.488428520580235  1.014116663803043 1.091301493651112 2.474767832486639  1.226660054283251 -0.7985284946028202 2.081242406925648  1.455388032758859 -0.113164575367486 2.282703947336242  1.339634282624336 -0.79644568038027 2.547452680787598  1.805722603473817 -0.8440115527851468 2.078615753071282  0.1821743391565473 1.595435930750562 2.5903667231274  -0.1879604925798806 1.981487507310104 2.257437501874302  -0.4179722159358051 1.953140079637284 3  0.04335340489247286 1.995730062311829 3  0.9025541663092692 0.4225803863622857 0  1.135486067825821 0.947534454009326 0  0.6021968632248157 0.7932041258053155 0  0.8505499342917182 1.025759049825131 0.5353204991820871  0.9827995192597104 0.1746394117049448 2.234570310665951  0.9955658339392071 -0.04502084354218341 3  -1.664006297246322 -1.10914411354164 1.875888952633512  -1.312762776967178 -1.497472070268641 1.943469646961802  1.189751496591887 0.7953090613197497 1.205021353519885  0.5177103743712206 0.8517061283556281 1.263147926922086  0.7551518935731276 1.265137931922017 0.9499300047073247  0.7876799948882367 0.6089280362230858 0.7814979844598379  -0.7740713825566979 -0.6255101783274258 3  -0.9807852804032304 -0.1950903220161286 3  -0.8836349378529437 -0.457975773256652 2.310914062613334  -1.344567555190213 -0.6983284766763056 2.512258555473228  -1.988366544844581 0.1181164523892848 1.985795232067481  -1.43886208970591 0.5149695080182193 1.569797912004486  -1.441353532002964 -0.002342185071706054 1.686018115577875  -1.973204015961851 0.2720641916429689 1.04935599125763  -1.973811255843297 0.2658987816605045 1.52516799132508  0.9545290653659886 -0.2816454632327977 0.6694471130563237  1.191933442830757 -0.8743164676129442 0.903733845483468  0.7166668731150645 -0.6954577754667044 1.218435799795285  -1.188860511984403 1.060117160508811 2.563049150981436  -1.423509350166563 1.402886612173637 2.399036955962143  -1.245839619965377 1.552394485835316 3  -1.059542960476273 1.69051866591576 2.444231285366565  0.3959736871192822 0.9167757433455479 2.450393920867024  0.3106111190640441 -0.9457424297310683 2.019183301627643  0.7082218437882379 -1.311703949689869 1.769051025256928  -0.6397769089613947 1.885856361599427 2.410835427716981  -1.243735389814646 0.8172777781496896 0  -1.524758301142871 1.279514408446921 0  -1.779307272275358 0.8934311615112988 0  -1.392669400495818 0.5227178203765839 0.5650798974098937  -0.2308620053190963 -1.551539094294586 1.717794458136412  0.03296184272064258 -1.996753541853206 1.470035164610787  -0.5709179202917503 -1.906744507448919 1.406703321415089  0.5838681171949094 1.350343322085466 0  0.570825861405329 1.906772433206812 0  0.79119686240752 1.833952643622452 0.6008470958115142  -1.987182279842392 0.1301404967408785 2.419469863729676  -1.9147265257177 0.5446047324439067 2.31369071979841  0.07503473923697349 -0.9926097232320116 3  0.3150958902771757 -1.466099679343499 3  -1.704258405401222 1.033837715886708 2.209211779154401  -1.813533168648966 0.8293990131207396 3  -1.57081860896361 1.223389760977683 3  0.5942163908489371 -1.374481420233743 0  0.7270811635437457 -1.27490888061952 0.5462966671918753  0.9958825989361997 -1.724545838077583 0  0.8720618164091423 -1.226870877129539 0  1.52814208573423 0.1613137918978927 0.5102072734156454  1.931628784137607 0.4888854537001638 0.8268342758254814  1.873050508530103 0.6819921490195341 0  1.779059765191089 0.8938942146969522 0.5856441150032816  -1.438480770485098 -0.07050119218872986 2.438185635059182  -1.513914009740071 -0.2001832623755173 3  -1.479465319414609 0.08365730523362372 3  0.5916715253007025 1.359220782900249 1.616040581602528  1.13378064835715 1.644358907156259 1.504736713985521  1.16929327003969 1.615214451734676 2.02523850809439  0.9802837104947404 1.015623498320988 1.932926185769896  -0.6020906612473962 -0.7932912835157278 0.5300545641521022  -0.8836349378529436 -0.457975773256652 0.6404787520590902  -1.023790947274213 -0.8542189253140726 0.4828357610848663  -0.602090661247396 -0.793291283515728 0.9479788500445958  -1.851925440117959 0.7516321667079673 1.81593851648282  0.9314397286268589 1.185469520867052 0  0.9958825989361937 1.724545838077586 0  -1.493079834035256 -0.02565043060049582 0.4708275303802578  -1.981971206824973 -0.1830494089890101 0.817455436623969  -1.940494357883519 -0.4596595737911316 0  -1.873203290925756 -0.6814884929589626 0.7907882208455987  0.1466855526147347 -1.464880016853866 2.2297974104337  0.477219149204427 -1.935167718916343 1.889112662052278  -0.04369448314686741 -1.9956964690359 2.079055695557334  0.5360331878793529 1.383554395144927 3  0.6305366219362482 1.461672021701259 2.573137157518678  0.5013469316464557 1.927848636129754 3  0.9318504505456354 1.758771734451193 3  -0.7378844931157909 0.6696040306912336 1.328661823726752  -0.4172064841849357 0.9054265768665729 1.472187054373984  -0.5041753880756408 0.8589407292555569 0.7961323206085094  -0.07495270366909 0.9926178030302175 1.026997429688398  -0.02829600397680036 0.9972130868589251 1.611363293353632  0.06779261740588695 1.516765368192542 1.298023978812301  -0.1244862568658107 -0.9877391738626058 1.721971119438714  0.1736639328492307 1.982895595541155 1.940581159545814  0.4218757816223545 1.951955945932026 1.52996483538921  1.813305601459702 -0.8298247613866921 2.479328878025894  0.08389629142111744 -1.655366426983338 0.4668966795233791  0.791196862407529 -1.833952643622447 0.6178951048582574  0.5289722636881395 -0.8456865231038897 0  -1.62582354055034 -1.156366057914528 2.400340978867071  -1.30970718391028 -1.49997973068384 2.410467318031572  -1.47869799332213 -1.335639055916161 3  0.7911968624075247 -1.83395264362245 1.495263286014477  -1.442538962714197 0.1702583109259658 0.9778387525341716  -1.98098155916357 -0.1930974703189275 1.399842543598607  0.9545290653659886 -0.2816454632327976 2.01543266745928  1.512588052516405 -0.2740719184538644 1.754192008279186  0.5708258614053336 -1.906772433206811 0  -0.6813513412608918 1.373329703138566 1.700767684044582  0.2740135347110018 1.973012022427457 2.410692233486728  -1.429512709177072 -0.3562124671024821 1.118349919785871  -0.9967945349396865 0.03254563292889093 0.6355050416165856  -0.9916319741441293 0.08496199232257164 1.271933936467721  -0.3105322360770285 0.9457663586235725 0  -0.411547925748101 1.452854916264971 0  -0.7401708019871629 1.285517174895019 0  -1.961570560806461 0.3901806440322567 3  -1.699069305881103 -1.043545838264532 1.110902756623406  -1.85201261692297 -0.751344783295784 1.504740755
[...]
<PointData  Scalars="f_16"> 
<DataArray  type="Float64"  Name="f_16"  format="ascii">4.3840244585061694e-01  2.7212665508782469e-01  2.6170104107515285e-01  3.6839392139265242e-01  1.0000000000000000e+00  8.6222092048906185e-01  8.1777790497453062e-01  7.7583997310332475e-01  3.7330010128341823e-01  5.2682566302254408e-01  3.5780016978611190e-01  2.7482162728956772e-01  3.5218310889094495e-01  4.9196284261440337e-01  3.2576536972358355e-01  6.1458314234305444e-01  7.8000115919643442e-01  6.6830799076872360e-01  6.5486472660494333e-01  3.9737608104379851e-01  5.0154039232441827e-01  2.7073795040512633e-01  3.7557648891815448e-01  3.7618393740400469e-01  2.3995891984254988e-01  1.7990396703984179e-01  2.0701923394844352e-01  7.9399057468259915e-01  6.9976575224521820e-01  8.4050162090505809e-01  6.9802132766799407e-01  1.0000000000000000e+00  8.2633290723287633e-01  1.0000000000000000e+00  1.0000000000000000e+00  3.9779980368390166e-01  3.6935927036675731e-01  2.4920535734738702e-01  4.9645887454835946e-01  1.0000000000000000e+00  8.4959905690252358e-01  1.0000000000000000e+00  1.0000000000000000e+00  1.0000000000000000e+00  7.5245771198591116e-01  1.0000000000000000e+00  1.0000000000000000e+00  7.4305869163786931e-01  6.6840853316533588e-01  7.7774725372462505e-01  6.5657374158292692e-01  6.9130398171300922e-01  6.1515381577045858e-01  5.1728551901499442e-01  6.7794750057067521e-01  8.0487451221089845e-01  6.2594861797894885e-01  7.1518369367250545e-01  7.7731806108659962e-01  1.0000000000000000e+00  8.2944372299662084e-01  8.2485944850949910e-01  6.9370240065046163e-01  7.6061335745541847e-01  8.4921018298972473e-01  6.9294736766354492e-01  8.6364539315833089e-01  7.5318247751733380e-01  1.0000000000000000e+00  1.0000000000000000e+00  0.0000000000000000e+00  0.0000000000000000e+00  0.0000000000000000e+00  1.7836618925946193e-01  7.4446668529250359e-01  1.0000000000000000e+00  6.2640956285199545e-01  6.4809087524334907e-01  4.0146049234377934e-01  4.2145080506006655e-01  3.1639251595196849e-01  2.6043170914159969e-01  1.0000000000000000e+00  1.0000000000000000e+00  7.6906375401177074e-01  8.3717333627370272e-01  6.6217612949907512e-01  5.2299622991555650e-01  5.6181935316218623e-01  3.4952609250875816e-01  5.0807162649495030e-01  2.2373745859963776e-01  3.0115641146446137e-01  4.0635526157489876e-01  8.5426293183979252e-01  7.9997991671864843e-01  1.0000000000000000e+00  8.1515578241386655e-01  8.1577850997699430e-01  6.7325580057785783e-01  5.8993385629681661e-01  8.0465371265112251e-01  0.0000000000000000e+00  0.0000000000000000e+00  0.0000000000000000e+00  1.8852909084350936e-01  5.7280531558908931e-01  4.8992187530799919e-01  4.6777681360564505e-01  0.0000000000000000e+00  0.0000000000000000e+00  1.9972434985082629e-01  8.0739841376084920e-01  7.7206954924172122e-01  1.0000000000000000e+00  1.0000000000000000e+00  7.3564069135926458e-01  1.0000000000000000e+00  1.0000000000000000e+00  0.0000000000000000e+00  1.8192949835918568e-01  0.0000000000000000e+00  0.0000000000000000e+00  1.6998771676544910e-01  2.7489345974197665e-01  0.0000000000000000e+00  1.9392039577364376e-01  8.1254357083755158e-01  1.0000000000000000e+00  1.0000000000000000e+00  5.3851190408125771e-01  5.0105664886662848e-01  6.7554155958632933e-01  6.4417590022351257e-01  1.7774617000169085e-01  2.1508413185975386e-01  1.6117921452766992e-01  3.1648860844403021e-01  6.0467118685680521e-01  0.0000000000000000e+00  0.0000000000000000e+00  1.5699263774416761e-01  2.7152247895665216e-01  0.0000000000000000e+00  2.6325513747607410e-01  7.4360519687882476e-01  6.3150579886710012e-01  6.9481672756165613e-01  1.0000000000000000e+00  8.5773475630250606e-01  1.0000000000000000e+00  1.0000000000000000e+00  4.4258958918057728e-01  4.9134246936820930e-01  2.6533003909584041e-01  3.4244944642300379e-01  5.3683614172095540e-01  4.3237768812436567e-01  5.7441259881033713e-01  6.4757905812236938e-01  5.0977425785313679e-01  8.2666029637264171e-01  1.5530846102874665e-01  2.0548733565497315e-01  0.0000000000000000e+00  8.0005855151561223e-01  8.0437465740405301e-01  1.0000000000000000e+00  4.9857757319293955e-01  3.2607314359956835e-01  4.6753380761573282e-01  6.7171941873077567e-01  5.8474027139162110e-01  0.0000000000000000e+00  5.6701616039852221e-01  8.0467678635851703e-01  3.7285464768226267e-01  2.1367496504465017e-01  4.2332638156410063e-01  0.0000000000000000e+00  0.0000000000000000e+00  0.0000000000000000e+00  1.0000000000000000e+00  3.6927958892544177e-01  5.0288947823366914e-01  0.0000000000000000e+00  1.9528131006718902e-01  1.6218397199127504e-01  7.9892790978084161e-01  1.9527778596056172e-01  2.4673828976089152e-01  3.5778544388056249e-01  5.3209415631392110e-01  4.7366554810436001e-01  6.4212717112154005e-01  4.9849243888922984e-01  2.9345160233200984e-01  4.6426340659998866e-01  8.1852655763145288e-01  1.0000000000000000e+00  0.0000000000000000e+00  0.0000000000000000e+00  1.8915274996158185e-01  1.6388498265466109e-01  2.0007919547710948e-01  2.6142984434118832e-01  4.9802055800740697e-01  8.1676606110572125e-01  6.3590481358267215e-01  8.5980180740338319e-01  7.8998163546667755e-01  1.8187414109690381e-01  5.2630971726106335e-01  4.3467866445489955e-01  1.9122022305437023e-01  1.9987290911725081e-01  3.5181368264885621e-01  1.0000000000000000e+00  6.2614766203751604e-01  3.6830758857827600e-01  1.6323058341212954e-01  2.8449515993434782e-01  1.0000000000000000e+00  1.0000000000000000e+00  1.0000000000000000e+00  1.0000000000000000e+00  5.4519398251344597e-01  0.0000000000000000e+00  1.8794702333701138e-01  8.2544508586878917e-01  8.2047901023298120e-01  1.0000000000000000e+00  1.0000000000000000e+00  1.0000000000000000e+00  8.0000855174189867e-01  3.3314336795064448e-01  1.0000000000000000e+00  1.0000000000000000e+00  8.1715060459331634e-01  1.0000000000000000e+00  0.0000000000000000e+00  1.9428905505824878e-01  2.0439699203617703e-01  8.0059734693006390e-01  2.8416174609158834e-01  1.0000000000000000e+00  0.0000000000000000e+00  0.0000000000000000e+00  0.0000000000000000e+00  0.0000000000000000e+00  0.0000000000000000e+00  6.1258125779145700e-01  7.0120087836728262e-01  4.6416804401927703e-01  0.0000000000000000e+00  0.0000000000000000e+00  0.0000000000000000e+00  5.8661579636596695e-01  4.7693290835446916e-01  0.0000000000000000e+00  1.9986203892333751e-01  1.0000000000000000e+00  1.0000000000000000e+00  7.1490126478912586e-01  2.2631839349902480e-01  0.0000000000000000e+00  1.3574513240286334e-01  0.0000000000000000e+00  3.3801577488332107e-01  3.1571662385190513e-01  3.5533948209886868e-01  1.4922271231224146e-01  0.0000000000000000e+00  1.8586614192519180e-01  0.0000000000000000e+00  1.9887018712586149e-01  0.0000000000000000e+00  0.0000000000000000e+00  0.0000000000000000e+00  0.0000000000000000e+00  8.1203525130843446e-01  1.0000000000000000e+00  1.0000000000000000e+00  0.0000000000000000e+00  0.0000000000000000e+00  2.2643782952282082e-01  3.0509873141482891e-01  3.6261620353433982e-01  1.0000000000000000e+00  0.0000000000000000e+00  7.3701362847008378e-01  1.0000000000000000e+00  6.2823532945160199e-01  5.3267224555780668e-01  0.0000000000000000e+00  1.6370487518369367e-01  1.7029803779461675e-01  5.9545274705059859e-01  7.7349490388755304e-01  1.0000000000000000e+00  2.5229005271380728e-01  6.6675124893286963e-01  1.0000000000000000e+00  4.9533633637610680e-01  7.7896556797736971e-01  3.3486250827634556e-01  4.8367340835941913e-01  1.0000000000000000e+00  0.0000000000000000e+00  1.0000000000000000e+00  1.0000000000000000e+00  0.0000000000000000e+00  0.0000000000000000e+00  5.0444557864793138e-01  2.6244591389053312e-01  0.0000000000000000e+00  0.0000000000000000e+00  0.0000000000000000e+00  0.0000000000000000e+00  7.3793604231855991e-01  1.0000000000000000e+00  1.0000000000000000e+00  1.9976612370947386e-01  7.7900926746773136e-01  1.0000000000000000e+00  1.8469807468240676e-01  0.0000000000000000e+00  0.0000000000000000e+00  4.8027874791439107e-01  1.8570395153094693e-01  5.1240724283749217e-01  0.0000000000000000e+00  0.0000000000000000e+00  6.2698164138622137e-01  4.5957807045740762e-01  4.6895240030529012e-01  8.1267588227639853e-01  0.0000000000000000e+00  0.0000000000000000e+00  1.7289285552924299e-01  1.0000000000000000e+00  0.0000000000000000e+00  1.0000000000000000e+00  8.0429226528822872e-01  1.0000000000000000e+00  1.0000000000000000e+00  1.0000000000000000e+00  2.7382417240812346e-01  6.3055745989624845e-01  5.9421821826830457e-01  0.0000000000000000e+00  7.1978354179505455e-01  0.0000000000000000e+00  0.0000000000000000e+00  0.0000000000000000e+00  4.4694602491867991e-01  1.0000000000000000e+00  1.0000000000000000e+00  1.0000000000000000e+00  1.0000000000000000e+00  0.0000000000000000e+00  1.0000000000000000e+00  1.8931098895658746e-01  1.0000000000000000e+00  0.0000000000000000e+00  1.0000000000000000e+00  7.8041553745820669e-01  0.0000000000000000e+00  6.7997798342289406e-01  6.4493251067501989e-01  </DataArray> 
</PointData> 
</Piece>
</UnstructuredGrid>
</VTKFile>