<?xml version="1.0"?>
<VTKFile type="UnstructuredGrid"  version="0.1"  >
<UnstructuredGrid>
<Piece  NumberOfPoints="370" NumberOfCells="1210">
<Points>
<DataArray  type="Float64"  NumberOfComponents="3"  format="ascii">1.399310647126385 0.4861101870387526 1.965101941806065  1.998889004971134 0.01128012182785944 2.045558868285823  1.455388032758859 -0.113164575367486 2.282703947336242  1.512588052516405 -0.2740719184538642 1.754192008279186  -1.415649600564344 1.41246374477418 1.124111047366489  -1.669846618080803 1.098217641777694 1.495259244783022  -1.669846618080803 1.098217641777694 0.7844479410434644  -1.302506330247836 0.7314384720123622 1.10539181245277  -0.7166731528108555 0.6954501236352435 3  -1.188860511984405 1.060117160508808 2.563049150981435  -1.265003737098992 0.7632387132791041 3  -1.104015886163718 1.02369849247725 3  -1.423509350166562 1.402886612173637 2.399036955962143  -1.704258405401222 1.033837715886708 2.209211779154401  -1.57081860896361 1.223389760977683 3  -1.111645100464135 1.01876650954189 1.580900689761715  -0.9726455044974875 1.137273922375865 1.073924182966423  -0.602090661247396 -0.793291283515728 2.439227975407248  -0.6020906612473962 -0.7932912835157279 1.83812870703057  -0.1651501800698811 -0.983734127000229 2.339300090882985  -0.5827073093287689 -1.331152000774804 2.094085086394617  0.6305366219362482 1.461672021701259 2.573137157518678  0.6111579583232629 1.894537825363827 2.475685567820468  0.9318504505456354 1.758771734451193 3  1.13378064835715 1.644358907156259 2.455031091878781  -0.9967945349396865 0.03254563292889093 0.6355050416165856  -1.392669400495818 0.5227178203765839 0.5650798974098937  -1.493079834035256 -0.02565043060049582 0.4708275303802578  -1.442538962714197 0.1702583109259658 0.9778387525341716  0.8720618164091423 -1.226870877129539 0  0.9958825989361997 -1.724545838077583 0  1.369313844397707 -1.451061808629684 0  0.727081163543751 -1.274908880619514 0.5462966671918768  -0.4634679166722555 -1.389623426455143 1.560308585826521  0.03296184272064251 -1.996753541853206 1.470035164610788  -0.5635526271104888 -1.908978744709251 1.949403070295751  -0.5709179202917503 -1.906744507448919 1.406703321415089  0.1466855526147347 -1.464880016853866 2.229797410433701  0.1706741063801162 -1.473951858822622 1.657995380740743  -0.04369448314686741 -1.9956964690359 2.079055695557334  0.1821743391565473 1.595435930750562 2.5903667231274  -0.1879604925798806 1.981487507310104 2.257437501874302  -0.4179722159358051 1.953140079637284 3  0.04335340489247286 1.995730062311829 3  1.50403471895437 0.02019379088048044 3  1.323841507958512 0.4889974985894576 2.488428520580235  1.970110436182802 0.3034738342473148 3  0.9807852804032303 0.1950903220161286 1.006853791166158  0.8534608015375593 0.5144276117421314 1.633723584493013  0.9893257645081893 0.1083773317058151 1.785271323260748  1.430264222105482 0.4050405554365119 1.451769552081978  -1.988366544844581 0.1181164523892848 1.985795232067481  -1.43886208970591 0.5149695080182192 1.569797912004486  -1.36936675165574 0.5445791180649218 2.094601113017113  -1.441353532002964 -0.002342185071706054 1.686018115577875  -1.973204015961851 0.2720641916429689 1.04935599125763  -1.973811255843297 0.2658987816605045 1.52516799132508  -1.873357740944297 0.6809793394824694 1.315280730417338  -1.851925440117959 0.7516321667079673 1.81593851648282  -0.6397769089613943 1.885856361599427 2.410835427716981  -0.8836349378529437 -0.457975773256652 2.310914062613334  -0.9807852804032304 -0.1950903220161286 3  -1.438480770485098 -0.07050119218872986 2.438185635059182  -1.344567555190213 -0.6983284766763056 2.512258555473228  0.2171273278454561 1.452231135633227 0.7206241776988639  0.5838681171949094 1.350343322085466 0  0.570825861405329 1.906772433206812 0  0.79119686240752 1.833952643622452 0.6008470958115142  -0.001500137293081391 -1.502222640736669 3  -0.08831675386204943 -1.592209287680674 2.5786718043508  0.1878647545340524 -1.981496936684592 3  -0.2745715643189928 -1.972957061308251 3  -1.813533168648966 0.8293990131207396 3  -0.615054954307005 -1.496078320078905 2.520694045970322  -0.4999612965618901 -1.928268963937346 2.419664532296455  -0.7236795068748532 -1.860404786776339 3  1.52814208573423 0.1613137918978926 0.5102072734156454  1.931628784137607 0.4888854537001639 0.8268342758254814  1.873050508530103 0.6819921490195341 0  1.779059765191089 0.8938942146969522 0.5856441150032816  -1.513914009740071 -0.2001832623755173 3  -1.479465319414609 0.08365730523362372 3  -1.973204015961851 0.2720641916429692 0.585554881990308  -1.981971206824973 -0.1830494089890101 0.817455436623969  0.5916715253007025 1.35922078290025 1.616040581602528  1.13378064835715 1.644358907156259 1.504736713985521  1.16929327003969 1.615214451734676 2.02523850809439  0.9802837104947404 1.015623498320987 1.932926185769896  -0.6020906612473962 -0.7932912835157278 0.5300545641521022  -0.8836349378529436 -0.457975773256652 0.6404787520590902  -1.023790947274213 -0.8542189253140726 0.4828357610848663  -0.602090661247396 -0.793291283515728 0.9479788500445958  -0.07495270366908996 0.9926178030302176 2.335678285116733  -0.1633239734712875 1.457514625388544 1.969260541812861  0.3505506524007391 1.439119323266543 2.229124975212371  -1.9147265257177 0.5446047324439067 2.31369071979841  0.2740135347110018 1.973012022427457 2.410692233486728  0.5013469316464557 1.927848636129754 3  -1.940494357883519 -0.4596595737911316 0  -1.873203290925756 -0.6814884929589626 0.7907882208455987  -1.174791349590177 -0.9094291444928995 0.8802318284181406  -1.699069305881103 -1.043545838264532 1.110902756623406  -1.368987970497773 -1.451329246427844 1.001457618045887  -0.9375070007058002 -1.21441520490972 1.304121182405259  1.926454636254942 -0.5059423333770237 2.481031809468046  1.987539498282541 -0.1265135970524583 2.441211065177312  1.98434356181004 -0.1589624846057301 3  -1.514674703827642 0.3918295191835693 2.521219115594657  0.5360331878793529 1.383554395144927 3  -1.429512709177072 -0.3562124671024821 1.118349919785871  -0.7166731528108555 0.6954501236352435 0  -0.5041753880756408 0.8589407292555569 0.7961323206085094  -0.997777547628997 1.02126242580943 0.563619860121328  -0.8598386698837638 0.5024954593186663 0.7531117329128125  -1.919418154960577 -0.5291385035500061 3  -1.970162024484521 -0.3029500494299536 2.400428960428948  -0.7378844931157909 0.6696040306912336 1.328661823726752  -0.4172064841849356 0.905426576866573 1.472187054373984  -0.4857392175468307 -1.371645797971567 0.9777955730243457  -0.08925624373007983 -0.9912090272966354 1.19456677684017  -0.490385948986904 -0.8663113380070018 1.393053778537583  -1.987182279842392 0.1301404967408785 2.419469863729676  -1.961570560806461 0.3901806440322567 3  1.190141907336153 -1.598104417287789 0.4925706892513765  1.52494138948322 -1.279291314658712 0.6173649490931152  1.285895848641168 -0.9157810167207565 0.4484794291144768  -0.3105322360770285 0.9457663586235725 0  -0.5469942367349584 1.360514599575593 0.5403398490353797  1.669784403879814 -1.098334036361089 0  1.779059765191092 -0.8938942146969459 0.5606628110678626  0.0838962914211174 -1.655366426983336 0.4668966795233792  0.7911968624075435 -1.833952643622439 0.6178951048582573  0.06424814067857137 -1.462513542149503 0.8252938567089984  0.6612847082440425 -1.340114905463986 1.10889391646127  0.3464861608853898 -1.965874091770562 0.856433407986938  1.340692296948859 0.6985534342409534 0  1.66978440387981 1.098334036361095 0  1.135486067825821 0.947534454009326 0  1.28393644087122 0.6551747871608027 0.5464156047922772  -0.9916319741441293 0.08496199232257164 1.271933936467721  -0.8598386698837637 0.5024954593186663 2.384476326122496  -1.033679646116658 1.024275855209799 2.145813876738125  -0.9908812524931419 1.727219113446145 0.5764262435794172  -0.9953960999118099 1.724805877223749 1.056530353038198  0.1736639328492305 1.982895595541155 1.940581159545814  1.450335244017662 0.3993844666440126 0.9479068445177695  1.779059765191089 0.8938942146969523 1.068024436647681  1.961570560806461 -0.3901806440322534 2.159984251702897  -1.779307272275358 0.8934311615112988 0  -1.875730638840034 0.6731569434453054 0.8174554366239695  -0.6181448518038516 1.361670697378814 2.257069987665449  -0.5483980349513318 1.913575839982153 1.925367090229608  -1.992883437186382 -0.07225567482078839 3  -0.3468272391397816 -1.965840498494632 0  -0.1161671093212524 -1.988558538379005 0.5893077665132737  -0.5715818319253527 -1.466126416576964 0.4872632822601943  -1.018560038870415 -1.71242449389789 1.576920919911466  -0.9111808473067269 -1.769819867558077 1.074632909770394  0.7166668731150645 -0.6954577754667044 1.218435799795285  1.240992448073932 -0.7277991002123511 1.504890969845327  1.191933442830757 -0.8743164676129442 0.903733845483468  0.9756404903825265 -0.2120504217921436 1.431575385960868  1.371659700543215 -0.6077316139648379 3  1.339634282624336 -0.7964456803802702 2.547452680787598  1.894126711453047 -0.6125132192606522 3  1.704010300253422 -1.034301887970529 3  0.8599034339052349 -0.5023742943566752 3  1.468057415404991 -0.2920147759474656 3  -0.4336968377143349 -1.444224541082522 0  -0.790979724086402 -1.834068706473131 0  -0.3959824170308197 -0.9167710771106152 3  -1.245839619965377 1.552394485835316 3  -1.409798914277625 -0.6679439708724926 0.4913454550270371  -1.669846618080803 -1.098217641777695 0.6009630440378566  0.6021968632248157 0.7932041258053155 3  1.014116663803043 1.091301493651112 2.474767832486639  0.8897527747736174 1.213786172835994 3  1.107235171763327 0.9941180878741851 3  0.7233515360664949 1.860504275633375 2.143566592013062  -1.499159133557997 -0.26036097865709 0  1.22666005428325 -0.7985284946028203 2.081242406925648  1.805722603473817 -0.8440115527851468 2.078615753071282  1.745217422811993 0.9572087840349652 2.004132439917261  1.745217422811993 0.9572087840349652 2.446687387956882  1.91926574085063 0.5296409455353088 2.339697577168066  -0.5260672980891882 0.8472392595660831 2.417582
[...]
<PointData  Scalars="f_36"> 
<DataArray  type="Float64"  Name="f_36"  format="ascii">6.5486304768895842e-01  6.7997538185913342e-01  7.6061045209533773e-01  5.8473640988644549e-01  3.7329836050420001e-01  4.9848991318617769e-01  2.6169922497478765e-01  3.6839124807046192e-01  1.0000000000000000e+00  8.5426200228550953e-01  1.0000000000000000e+00  1.0000000000000000e+00  7.9997879240202019e-01  7.3563872555513021e-01  1.0000000000000000e+00  5.2682356635941130e-01  3.5779856953733286e-01  8.1201930499986974e-01  6.1261418110389110e-01  7.7890435892372867e-01  6.9813052077759541e-01  8.5773441728113564e-01  8.2544470067945763e-01  1.0000000000000000e+00  8.1852609970553403e-01  2.1367127956446974e-01  1.8852709575958654e-01  1.5698974950750239e-01  3.2606870839740321e-01  0.0000000000000000e+00  0.0000000000000000e+00  0.0000000000000000e+00  1.8193170744973522e-01  5.2006059645969360e-01  4.8995637458411612e-01  6.5080345810298990e-01  4.6783088925552851e-01  7.4351666146206485e-01  5.5299916499238533e-01  6.9436869357130437e-01  8.6364506913751882e-01  7.5318188334736413e-01  1.0000000000000000e+00  1.0000000000000000e+00  1.0000000000000000e+00  8.2944266505469288e-01  1.0000000000000000e+00  3.3486103719306315e-01  5.4519259074105964e-01  5.9545001921075924e-01  4.8367162490899690e-01  6.6217122105680537e-01  5.2299250350160709e-01  6.9801838809330730e-01  5.6181303497333801e-01  3.4952177189788236e-01  5.0806667130174699e-01  4.3839896620401231e-01  6.0466800595501213e-01  8.0465310708597393e-01  7.6905492149383969e-01  1.0000000000000000e+00  8.1253969006167215e-01  8.3716721094158042e-01  2.3995840000168392e-01  0.0000000000000000e+00  0.0000000000000000e+00  1.9972394081263292e-01  1.0000000000000000e+00  8.5975435061919736e-01  1.0000000000000000e+00  1.0000000000000000e+00  1.0000000000000000e+00  8.4056014543958524e-01  8.0753314885966798e-01  1.0000000000000000e+00  1.6998694792458058e-01  2.7489234134450713e-01  0.0000000000000000e+00  1.9391975540658812e-01  1.0000000000000000e+00  1.0000000000000000e+00  1.9428632870695023e-01  2.7151729141074016e-01  5.3851113530666439e-01  5.0105584936675529e-01  6.7554084153795324e-01  6.4417497818748792e-01  1.7774189079810188e-01  2.1507774711819708e-01  1.6117283859490825e-01  3.1647642653486058e-01  7.7774663695355484e-01  6.5657293769976643e-01  7.4305812976163121e-01  7.7206691583382969e-01  8.0467635515579516e-01  1.0000000000000000e+00  0.0000000000000000e+00  2.6324739409094911e-01  2.9343922892178198e-01  3.6926415448080890e-01  3.3310764914780211e-01  4.3464439333332239e-01  8.2632992441283037e-01  8.1267371619786422e-01  1.0000000000000000e+00  8.4049955498901952e-01  1.0000000000000000e+00  3.7284627701855533e-01  0.0000000000000000e+00  2.6532891890858273e-01  1.8794593882288688e-01  2.5228790577112337e-01  1.0000000000000000e+00  8.0000398332097777e-01  4.4258731565909065e-01  4.9134112806240010e-01  3.2573303022791350e-01  3.9782878172928560e-01  4.6398355835396360e-01  8.0739526327951161e-01  1.0000000000000000e+00  1.6323082457305502e-01  2.0439626460910620e-01  1.4922242531149774e-01  0.0000000000000000e+00  1.7990334157792318e-01  0.0000000000000000e+00  1.8586507880920008e-01  1.5531960842327205e-01  2.0548781648645337e-01  2.7483954813376110e-01  3.6941103314642160e-01  2.8416071009970967e-01  0.0000000000000000e+00  0.0000000000000000e+00  0.0000000000000000e+00  1.8187352908032151e-01  4.2332078712213261e-01  7.9398870113554942e-01  7.1518211457341707e-01  1.9121947787928972e-01  3.5181250393893315e-01  6.4757838171107851e-01  3.1571536971592951e-01  3.5533838574516963e-01  7.1977995976238052e-01  0.0000000000000000e+00  2.7212399251048386e-01  7.5245683870876223e-01  6.4212627116590626e-01  1.0000000000000000e+00  0.0000000000000000e+00  1.9530488890356612e-01  1.6218599047079951e-01  5.2585714059507294e-01  3.5775250592004282e-01  4.0635197972251708e-01  5.0153545279314449e-01  3.0115449718275838e-01  4.7692915226264804e-01  1.0000000000000000e+00  8.4920494401063951e-01  1.0000000000000000e+00  1.0000000000000000e+00  1.0000000000000000e+00  1.0000000000000000e+00  0.0000000000000000e+00  0.0000000000000000e+00  1.0000000000000000e+00  1.0000000000000000e+00  1.6387951559463304e-01  2.0007030456519603e-01  1.0000000000000000e+00  8.2485890484145374e-01  1.0000000000000000e+00  1.0000000000000000e+00  7.1490068654232397e-01  0.0000000000000000e+00  6.9369369718779450e-01  6.9294139801404508e-01  6.6830679843992369e-01  8.1676525907304087e-01  7.7999982031575887e-01  8.0487360050728596e-01  0.0000000000000000e+00  2.2631787962025413e-01  8.1577803105441082e-01  6.6840779088964641e-01  3.7618288198522659e-01  5.6701490414558320e-01  5.3683523997978000e-01  4.3237690769166215e-01  0.0000000000000000e+00  1.9987185540806349e-01  1.0000000000000000e+00  1.0000000000000000e+00  1.0000000000000000e+00  1.3574444378394976e-01  2.2373654348141972e-01  2.7073630857334624e-01  3.9737390684666229e-01  3.7557399011835602e-01  6.9128468037839641e-01  6.1514366926437569e-01  5.1726958475714380e-01  6.7793895262278392e-01  8.0437415038917548e-01  7.7391416303564664e-01  1.0000000000000000e+00  1.7029755174607927e-01  6.9976090755095310e-01  5.0977353867366015e-01  8.2665597422465953e-01  5.3209331772045398e-01  4.7366448764175872e-01  5.0444406585090895e-01  4.2144998140543688e-01  3.1639186534086416e-01  1.0000000000000000e+00  0.0000000000000000e+00  1.0000000000000000e+00  8.6218114791711320e-01  8.1774918816906716e-01  7.4446455392425959e-01  7.9891950122470390e-01  2.4675734837087190e-01  3.5226639552084205e-01  2.6043095669724947e-01  1.7836574809396930e-01  0.0000000000000000e+00  0.0000000000000000e+00  0.0000000000000000e+00  1.0000000000000000e+00  8.1515501455680095e-01  1.0000000000000000e+00  0.0000000000000000e+00  0.0000000000000000e+00  5.0287742697762461e-01  4.9530774078107387e-01  3.6261541575997086e-01  2.2643717747893694e-01  4.6752670123000090e-01  6.2822544993580243e-01  6.6675003795934185e-01  1.0000000000000000e+00  1.0000000000000000e+00  0.0000000000000000e+00  0.0000000000000000e+00  2.0701875110628312e-01  6.2639343701554007e-01  6.4806384975534170e-01  8.1714642284116124e-01  0.0000000000000000e+00  0.0000000000000000e+00  0.0000000000000000e+00  1.0000000000000000e+00  4.0145940251924472e-01  4.9869922900097519e-01  0.0000000000000000e+00  0.0000000000000000e+00  1.0000000000000000e+00  0.0000000000000000e+00  3.6830692845857821e-01  1.0000000000000000e+00  1.0000000000000000e+00  1.9976495930478366e-01  0.0000000000000000e+00  0.0000000000000000e+00  8.0005032714625146e-01  7.3792754288287243e-01  2.4920882918651069e-01  5.7437846861449582e-01  1.9986549666406556e-01  6.7171390835213574e-01  6.7322807104226401e-01  0.0000000000000000e+00  1.6371318087350162e-01  6.3055561429674278e-01  7.7731719409583289e-01  0.0000000000000000e+00  1.0000000000000000e+00  2.6142849774121296e-01  4.9801805505311469e-01  4.6425070540573055e-01  1.8915223137383394e-01  5.8990622754605415e-01  5.8660373212100869e-01  6.2613983904808335e-01  6.1458111311656727e-01  1.0000000000000000e+00  1.0000000000000000e+00  1.0000000000000000e+00  1.0000000000000000e+00  0.0000000000000000e+00  0.0000000000000000e+00  0.0000000000000000e+00  0.0000000000000000e+00  0.0000000000000000e+00  0.0000000000000000e+00  1.9887266532830503e-01  5.1240589422147065e-01  1.9527702373731134e-01  0.0000000000000000e+00  0.0000000000000000e+00  0.0000000000000000e+00  0.0000000000000000e+00  0.0000000000000000e+00  1.0000000000000000e+00  5.3266729383666334e-01  1.0000000000000000e+00  0.0000000000000000e+00  0.0000000000000000e+00  0.0000000000000000e+00  1.0000000000000000e+00  1.8468773467576194e-01  0.0000000000000000e+00  4.8026685064083646e-01  1.8570318310811484e-01  7.7899614412676266e-01  4.6894666294839610e-01  3.3801304137495780e-01  7.7581598143670483e-01  1.7289248818902889e-01  3.0509814546672326e-01  2.8449109678610102e-01  8.0052728166495146e-01  7.3697674504054478e-01  1.0000000000000000e+00  0.0000000000000000e+00  8.2035022315042538e-01  2.6244534636650069e-01  0.0000000000000000e+00  0.0000000000000000e+00  1.0000000000000000e+00  8.0427624991693436e-01  1.0000000000000000e+00  0.0000000000000000e+00  1.0000000000000000e+00  1.0000000000000000e+00  4.9644403501221240e-01  2.7382346155301240e-01  6.3134001207452684e-01  0.0000000000000000e+00  0.0000000000000000e+00  0.0000000000000000e+00  4.5957708145535808e-01  0.0000000000000000e+00  1.0000000000000000e+00  6.4491460697143055e-01  0.0000000000000000e+00  0.0000000000000000e+00  0.0000000000000000e+00  1.0000000000000000e+00  1.0000000000000000e+00  5.9421513155650618e-01  0.0000000000000000e+00  0.0000000000000000e+00  1.0000000000000000e+00  6.2594716374685455e-01  4.4694434959011575e-01  3.4244862785103630e-01  1.8931052173552193e-01  7.8041485702664570e-01  0.0000000000000000e+00  6.2698068996122891e-01  1.0000000000000000e+00  1.0000000000000000e+00  1.0000000000000000e+00  </DataArray> 
</PointData> 
</Piece>
</UnstructuredGrid>
</VTKFile>