<?xml version="1.0"?>
<VTKFile type="UnstructuredGrid"  version="0.1"  >
<UnstructuredGrid>
<Piece  NumberOfPoints="2601" NumberOfCells="5000">
<Points>
<DataArray  type="Float64"  NumberOfComponents="3"  format="ascii">0 0 0  0.02 0 0  0.04 0 0  0.06 0 0  0.08 0 0  0.1 0 0  0.12 0 0  0.14 0 0  0.16 0 0  0.18 0 0  0.2 0 0  0.22 0 0  0.24 0 0  0.26 0 0  0.28 0 0  0.3 0 0  0.32 0 0  0.34 0 0  0.36 0 0  0.38 0 0  0.4 0 0  0.42 0 0  0.44 0 0  0.46 0 0  0.48 0 0  0.5 0 0  0.52 0 0  0.54 0 0  0.5600000000000001 0 0  0.58 0 0  0.6 0 0  0.62 0 0  0.64 0 0  0.66 0 0  0.68 0 0  0.7 0 0  0.72 0 0  0.74 0 0  0.76 0 0  0.78 0 0  0.8 0 0  0.82 0 0  0.84 0 0  0.86 0 0  0.88 0 0  0.9 0 0  0.92 0 0  0.9399999999999999 0 0  0.96 0 0  0.98 0 0  1 0 0  0 0.02 0  0.02 0.02 0  0.04 0.02 0  0.06 0.02 0  0.08 0.02 0  0.1 0.02 0  0.12 0.02 0  0.14 0.02 0  0.16 0.02 0  0.18 0.02 0  0.2 0.02 0  0.22 0.02 0  0.24 0.02 0  0.26 0.02 0  0.28 0.02 0  0.3 0.02 0  0.32 0.02 0  0.34 0.02 0  0.36 0.02 0  0.38 0.02 0  0.4 0.02 0  0.42 0.02 0  0.44 0.02 0  0.46 0.02 0  0.48 0.02 0  0.5 0.02 0  0.52 0.02 0  0.54 0.02 0  0.5600000000000001 0.02 0  0.58 0.02 0  0.6 0.02 0  0.62 0.02 0  0.64 0.02 0  0.66 0.02 0  0.68 0.02 0  0.7 0.02 0  0.72 0.02 0  0.74 0.02 0  0.76 0.02 0  0.78 0.02 0  0.8 0.02 0  0.82 0.02 0  0.84 0.02 0  0.86 0.02 0  0.88 0.02 0  0.9 0.02 0  0.92 0.02 0  0.9399999999999999 0.02 0  0.96 0.02 0  0.98 0.02 0  1 0.02 0  0 0.04 0  0.02 0.04 0  0.04 0.04 0  0.06 0.04 0  0.08 0.04 0  0.1 0.04 0  0.12 0.04 0  0.14 0.04 0  0.16 0.04 0  0.18 0.04 0  0.2 0.04 0  0.22 0.04 0  0.24 0.04 0  0.26 0.04 0  0.28 0.04 0  0.3 0.04 0  0.32 0.04 0  0.34 0.04 0  0.36 0.04 0  0.38 0.04 0  0.4 0.04 0  0.42 0.04 0  0.44 0.04 0  0.46 0.04 0  0.48 0.04 0  0.5 0.04 0  0.52 0.04 0  0.54 0.04 0  0.5600000000000001 0.04 0  0.58 0.04 0  0.6 0.04 0  0.62 0.04 0  0.64 0.04 0  0.66 0.04 0  0.68 0.04 0  0.7 0.04 0  0.72 0.04 0  0.74 0.04 0  0.76 0.04 0  0.78 0.04 0  0.8 0.04 0  0.82 0.04 0  0.84 0.04 0  0.86 0.04 0  0.88 0.04 0  0.9 0.04 0  0.92 0.04 0  0.9399999999999999 0.04 0  0.96 0.04 0  0.98 0.04 0  1 0.04 0  0 0.06 0  0.02 0.06 0  0.04 0.06 0  0.06 0.06 0  0.08 0.06 0  0.1 0.06 0  0.12 0.06 0  0.14 0.06 0  0.16 0.06 0  0.18 0.06 0  0.2 0.06 0  0.22 0.06 0  0.24 0.06 0  0.26 0.06 0  0.28 0.06 0  0.3 0.06 0  0.32 0.06 0  0.34 0.06 0  0.36 0.06 0  0.38 0.06 0  0.4 0.06 0  0.42 0.06 0  0.44 0.06 0  0.46 0.06 0  0.48 0.06 0  0.5 0.06 0  0.52 0.06 0  0.54 0.06 0  0.5600000000000001 0.06 0  0.58 0.06 0  0.6 0.06 0  0.62 0.06 0  0.64 0.06 0  0.66 0.06 0  0.68 0.06 0  0.7 0.06 0  0.72 0.06 0  0.74 0.06 0  0.76 0.06 0  0.78 0.06 0  0.8 0.06 0  0.82 0.06 0  0.84 0.06 0  0.86 0.06 0  0.88 0.06 0  0.9 0.06 0  0.92 0.06 0  0.9399999999999999 0.06 0  0.96 0.06 0  0.98 0.06 0  1 0.06 0  0 0.08 0  0.02 0.08 0  0.04 0.08 0  0.06 0.08 0  0.08 0.08 0  0.1 0.08 0  0.12 0.08 0  0.14 0.08 0  0.16 0.08 0  0.18 0.08 0  0.2 0.08 0  0.22 0.08 0  0.24 0.08 0  0.26 0.08 0  0.28 0.08 0  0.3 0.08 0  0.32 0.08 0  0.34 0.08 0  0.36 0.08 0  0.38 0.08 0  0.4 0.08 0  0.42 0.08 0  0.44 0.08 0  0.46 0.08 0  0.48 0.08 0  0.5 0.08 0  0.52 0.08 0  0.54 0.08 0  0.5600000000000001 0.08 0  0.58 0.08 0  0.6 0.08 0  0.62 0.08 0  0.64 0.08 0  0.66 0.08 0  0.68 0.08 0  0.7 0.08 0  0.72 0.08 0  0.74 0.08 0  0.76 0.08 0  0.78 0.08 0  0.8 0.08 0  0.82 0.08 0  0.84 0.08 0  0.86 0.08 0  0.88 0.08 0  0.9 0.08 0  0.92 0.08 0  0.9399999999999999 0.08 0  0.96 0.08 0  0.98 0.08 0  1 0.08 0  0 0.1 0  0.02 0.1 0  0.04 0.1 0  0.06 0.1 0  0.08 0.1 0  0.1 0.1 0  0.12 0.1 0  0.14 0.1 0  0.16 0.1 0  0.18 0.1 0  0.2 0.1 0  0.22 0.1 0  0.24 0.1 0  0.26 0.1 0  0.28 0.1 0  0.3 0.1 0  0.32 0.1 0  0.34 0.1 0  0.36 0.1 0  0.38 0.1 0  0.4 0.1 0  0.42 0.1 0  0.44 0.1 0  0.46 0.1 0  0.48 0.1 0  0.5 0.1 0  0.52 0.1 0  0.54 0.1 0  0.5600000000000001 0.1 0  0.58 0.1 0  0.6 0.1 0  0.62 0.1 0  0.64 0.1 0  0.66 0.1 0  0.68 0.1 0  0.7 0.1 0  0.72 0.1 0  0.74 0.1 0  0.76 0.1 0  0.78 0.1 0  0.8 0.1 0  0.82 0.1 0  0.84 0.1 0  0.86 0.1 0  0.88 0.1 0  0.9 0.1 0  0.92 0.1 0  0.9399999999999999 0.1 0  0.96 0.1 0  0.98 0.1 0  1 0.1 0  0 0.12 0  0.02 0.12 0  0.04 0.12 0  0.06 0.12 0  0.08 0.12 0  0.1 0.12 0  0.12 0.12 0  0.14 0.12 0  0.16 0.12 0  0.18 0.12 0  0.2 0.12 0  0.22 0.12 0  0.24 0.12 0  0.26 0.12 0  0.28 0.12 0  0.3 0.12 0  0.32 0.12 0  0.34 0.12 0  0.36 0.12 0  0.38 0.12 0  0.4 0.12 0  0.42 0.12 0  0.44 0.12 0  0.46 0.12 0  0.48 0.12 0  0.5 0.12 0  0.52 0.12 0  0.54 0.12 0  0.5600000000000001 0.12 0  0.58 0.12 0  0.6 0.12 0  0.62 0.12 0  0.64 0.12 0  0.66 0.12 0  0.68 0.12 0  0.7 0.12 0  0.72 0.12 0  0.74 0.12 0  0.76 0.12 0  0.78 0.12 0  0.8 0.12 0  0.82 0.12 0  0.84 0.12 0  0.86 0.12 0  0.88 0.12 0  0.9 0.12 0  0.92 0.12 0  0.9399999999999999 0.12 0  0.96 0.12 0  0.98 0.12 0  1 0.12 0  0 0.14 0  0.02 0.14 0  0.04 0.14 0  0.06 0.14 0  0.08 0.14 0  0.1 0.14 0  0.12 0.14 0  0.14 0.14 0  0.16 0.14 0  0.18 0.14 0  0.2 0.14 0  0.22 0.14 0  0.24 0.14 0  0.26 0.14 0  0.28 0.14 0  0.3 0.14 0  0.32 0.14 0  0.34 0.14 0  0.36 0.14 0  0.38 0.14 0  0.4 0.14 0  0.42 0.14 0  0.44 0.14 0  0.46 0.14 0  0.48 0.14 0  0.5 0.14 0  0.52 0.14 0  0.54 0.14 0  0.5600000000000001 0.14 0  0.58 0.14 0  0.6 0.14 0  0.62 0.14 0  0.64 0.14 0  0.66 0.14 0  0.68 0.14 0  0.7 0.14 0  0.72 0.14 0  0.74 0.14 0  0.76 0.14 0  0.78 0.14 0  0.8 0.14 0  0.82 0.14 0  0.84 0.14 0  0.86 0.14 0  0.88 0.14 0  0.9 0.14 0  0.92 0.14 0  0.9399999999999999 0.14 0  0.96 0.14 0  0.98 0.14 0  1 0.14 0  0 0.16 0  0.02 0.16 0  0.04 0.16 0  0.06 0.16 0  0.08 0.16 0  0.1 0.16 0  0.12 0.16 0  0.14 0.16 0  0.16 0.16 0  0.18 0.16 0  0.2 0.16 0  0.22 0.16 0  0.24 0.16 0  0.26 0.16 0  0.28 0.16 0  0.3 0.16 0  0.32 0.16 0  0.34 0.16 0  0.36 0.16 0  0.38 0.16 0  0.4 0.16 0  0.42 0.16 0  0.44 0.16 0  0.46 0.16 0  0.48 0.16 0  0.5 0.16 0  0.52 0.16 0  0.54 0.16 0  0.5600000000000001 0.16 0  0.58 0.16 0  0.6 0.16 0  0.62 0.16 0  0.64 0.16 0  0.66 0.16 0  0.68 0.16 0  0.7 0.16 0  0.72 0.16 0  0.74 0.16 0  0.76 0.16 0  0.78 0.16 0  0.8 0.16 0  0.82 0.16 0  0.84 0.16 0  0.86 0.16 0  0.88 0.16 0  0.9 0.16 0  0.92 0.16 0  0.9399999999999999 0.16 0  0.96 0.16 0  0.98 0.16 0  1 0.16 0  0 0.18 0  0.02 0.18 0  0.04 0.18 0  0.06 0.18 0  0.08 0.18 0  0.1 0.18 0  0.12 0.18 0  0.14 0.18 0  0.16 0.18 0  0.18 0.18 0  0.2 0.18 0  0.22 0.18 0  0.24 0.18 0  0.26 0.18 0  0.28 0.18 0  0.3 0.18 0  0.32 0.18 0  0.34 0.18 0  0.36 0.18 0  0.38 0.18 0  0.4 0.18 0  0.42 0.18 0  0.44 0.18 0  0.46 0.18 0  0.48 0.18 0  0.5 0.18 0  0.52 0.18 0  0.54 0.18 0  0.5600000000000001 0.18 0  0.58 0.18 0  0.6 0.18 0  0.62 0.18 0  0.64 0.18 0  0.66 0.18 0  0.68 0.18 0  0.7 0.18 0  0.72 0.18 0  0.74 0.18 0  0.76 0.18 0  0.78 0.18 0  0.8 0.18 0  0.82 0.18 0  0.84 0.18 0  0.86 0.18 0  0.88 0.18 0  0.9 0.18 0  0.92 0.18 0  0.9399999999999999 0.18 0  0.96 0.18 0  0.98 0.18 0  1 0.18 0  0 0.2 0  0.02 0.2 0  0.04 0.2 0  0.06 0.2 0  0.08 0.2 0  0.1 0.2 0  0.12 0.2 0  0.14 0.2 0  0.16 0.2 0  0.18 0.2 0  0.2 0.2 0  0.22 0.2 0  0.24 0.2 0  0.26 0.2 0  0.28 0.2 0  0.3 0.2 0  0.32 0.2 0  0.34 0.2 0  0.36 0.2 0  0.38 0.2 0  0.4 0.2 0  0.42 0.2 0  0.44 0.2 0  0.46 0.2 0  0.48 0.2 0  0.5 0.2 0  0.52 0.2 0  0.54 0.2 0  0.5600000000000001 0.2 0  0.58 0.2 0  0.6 0.2 0  0.62 0.2 0  0.64 0.2 0  0.66 0.2 0  0.68 0.2 0  0.7 0.2 0  0.72 0.2 0  0.74 0.2 0  0.76 0.2 0  0.78 0.2 0  0.8 0.2 0  0.82 0.2 0  0.84 0.2 0  0.86 0.2 0  0.88 0.2 0  0.9 0.2 0  0.92 0.2 0  0.9399999999999999 0.2 0  0.96 0.2 0  0.98 0.2 0  1 0.2 0  0 0.22 0  0.02 0.22 0  0.04 0.22 0  0.06 0.22 0  0.08 0.22 0  0.1 0.22 0  0.12 0.22 0  0.14 0.22 0  0.16 0.22 0  0.18 0.22 0  0.2 0.22 0  0.22 0.22 0  0.24 0.22 0  0.26 0.22 0  0.28 0.22 0  0.3 0.22 0  0.32 0.22 0  0.34 0.22 0  0.36 0.22 0  0.38 0.22 0  0.4 0.22 0  0.42 0.22 0  0.44 0.22 0  0.46 0.22 0  0.48 0.22 0  0.5 0.22 0  0.52 0.22 0  0.54 0.22 0  0.5600000000000001 0.22 0  0.58 0.22 0  0.6 0.22 0  0.62 0.22 0  0.64 0.22 0  0.66 0.22 0  0.68 0.22 0  0.7 0.22 0  0.72 0.22 0  0.74 0.22 0  0.76 0.22 0  0.78 0.22 0  0.8 0.22 0  0.82 0.22 0  0.84 0.22 0  0.86 0.22 0  0.88 0.22 0  0.9 0.22 0  0.92 0.22 0  0.9399999999999999 0.22 0  0.96 0.22 0  0.98 0.22 0  1 0.22 0  0 0.24 0  0.02 0.24 0  0.04 0.24 0  0.06 0.24 0  0.08 0.24 0  0.1 0.24 0  0.12 0.24 0  0.14 0.24 0  0.16 0.24 0  0.18 0.24 0  0.2 0.24 0  0.22 0.24 0  0.24 0.24 0  0.26 0.24 0  0.28 0.24 0  0.3 0.24 0  0.32 0.24 0  0.34 0.24 0  0.36 0.24 0  0.38 0.24 0  0.4 0.24 0  0.42 0.24 0  0.44 0.24 0  0.46 0.24 0  0.48 0.24 0  0.5 0.24 0  0.52 0.24 0  0.54 0.24 0  0.5600000000000001 0.24 0  0.58 0.24 0  0.6 0.24 0  0.62 0.24 0  0.64 0.24 0  0.66 0.24 0  0.68 0.24 0  0.7 0.24 0  0.72 0.24 0  0.74 0.24 0  0.76 0.24 0  0.78 0.24 0  0.8 0.24 0  0.82 0.24 0  0.84 0.24 0  0.86 0.24 0  0.88 0.24 0  0.9 0.24 0  0.92 0.24 0  0.9399999999999999 0.24 0  0.96 0.24 0  0.98 0.24 0  1 0.24 0  0 0.26 0  0.02 0.26 0  0.04 0.26 0  0.06 0.26 0  0.08 0.26 0  0.1 0.26 0  0.12 0.26 0  0.14 0.26 0  0.16 0.26 0  0.18 0.26 0  0.2 0.26 0  0.22 0.26 0  0.24 0.26 0  0.26 0.26 0  0.28 0.26 0  0.3 0.26 0  0.32 0.26 0  0.34 0.26 0  0.36 0.26 0  0.38 0.26 0  0.4 0.26 0  0.42 0.26 0  0.44 0.26 0  0.46 0.26 0  0.48 0.26 0  0.5 0.26 0  0.52 0.26 0  0.54 0.26 0  0.5600000000000001 0.26 0  0.58 0.26 0  0.6 0.26 0  0.62 0.26 0  0.64 0.26 0  0.66 0.26 0  0.68 0.26 0  0.7 0.26 0  0.72 0.26 0  0.74 0.26 0  0.76 0.26 0  0.78 0.26 0  0.8 0.26 0  0.82 0.26 0  0.84 0.26 0  0.86 0.26 0  0.88 0.26 0  0.9 0.26 0  0.92 0.26 0  0.9399999999999999 0.26 0  0.96 0.26 0  0.98 0.26 0  1 0.26 0  0 0.28 0  0.02 0.28 0  0.04 0.28 0  0.06 0.28 0  0.08 0.28 0  0.1 0.28 0  0.12 0.28 0  0.14 0.28 0  0.16 0.28 0  0.18 0.28 0  0.2 0.28 0  0.22 0.28 0  0.24 0.28 0  0.26 0.28 0  0.28 0.28 0  0.3 0.28 0  0.32 0.28 0  0.34 0.28 0  0.36 0.28 0  0.38 0.28 0  0.4 0.28 0  0.42 0.28 0  0.44 0.28 0  0.46 0.28 0  0.48 0.28 0  0.5 0.28 0  0.52 0.28 0  0.54 0.28 0  0.5600000000000001 0.28 0  0.58 0.28 0  0.6 0.28 0  0.62 0.28 0  0.64 0.28 0  0.66 0.28 0  0.68 0.28 0  0.7 0.28 0  0.72 0.28 0  0.74 0.28 0  0.76 0.28 0  0.78 0.28 0  0.8 0.28 0  0.82 0.28 0  0.84 0.28 0  0.86 0.28
[...]
<PointData  Scalars="f_8"> 
<DataArray  type="Float64"  Name="f_8"  format="ascii">8.5901586658837881e-01  8.5322608834125568e-01  8.5170607853293046e-01  8.5499957782982772e-01  8.6337104959380140e-01  8.7678110024808698e-01  8.9488955425052241e-01  9.1708792775976622e-01  9.4256160881101136e-01  9.7037848186164199e-01  9.9959518233616051e-01  1.0293663542584710e+00  1.0590387211361116e+00  1.0882124445155055e+00  1.1167575025719225e+00  1.1447812204928229e+00  1.1725520958881843e+00  1.2003922845397206e+00  1.2285552436554203e+00  1.2571061403282682e+00  1.2858217031685761e+00  1.3141242897867302e+00  1.3410624974945875e+00  1.3653472358242666e+00  1.3854468821860209e+00  1.3997372965808683e+00  1.4066924793604887e+00  1.4050913708126964e+00  1.3942087057166210e+00  1.3739560751365671e+00  1.3449453278699430e+00  1.3084597887683929e+00  1.2663365410189489e+00  1.2207804917796981e+00  1.1741432095171520e+00  1.1287032857190220e+00  1.0864797498386665e+00  1.0490982904296065e+00  1.0177160122952402e+00  9.9299864688543282e-01  9.7513753055601637e-01  9.6389295850417500e-01  9.5865420953035363e-01  9.5851181165720944e-01  9.6234156111742475e-01  9.6890046845950606e-01  9.7693189288467464e-01  9.8527208821530210e-01  9.9294580622405493e-01  9.9923706093018305e-01  1.0037239974817849e+00  8.4157265897336464e-01  8.3496436290273168e-01  8.3314407471031038e-01  8.3670361592664877e-01  8.4592283066371532e-01  8.6074227516960033e-01  8.8076445917335444e-01  9.0528662860118103e-01  9.3336740835750442e-01  9.6392574661961494e-01  9.9586356017180033e-01  1.0281955221745420e+00  1.0601640045883192e+00  1.0913171316784489e+00  1.1215339275958598e+00  1.1509908542488856e+00  1.1800752945396327e+00  1.2092605029081473e+00  1.2389614586498519e+00  1.2693920526382365e+00  1.3004425533669346e+00  1.3315939396708711e+00  1.3618832097757367e+00  1.3899306884538909e+00  1.4140353144412943e+00  1.4323356898588369e+00  1.4430233341974272e+00  1.4445820077353877e+00  1.4360167023980714e+00  1.4170319769292559e+00  1.3881245645807783e+00  1.3505697368880476e+00  1.3063016632865136e+00  1.2577094068996255e+00  1.2073861208694565e+00  1.1578750214860540e+00  1.1114507141007366e+00  1.0699609918078605e+00  1.0347373825902151e+00  1.0065679964719407e+00  9.8571752399755153e-01  9.7197769649177213e-01  9.6473556365743074e-01  9.6305332381005915e-01  9.6575866010867761e-01  9.7154615169689651e-01  9.7908777714130601e-01  9.8714525533507824e-01  9.9467179448155330e-01  1.0008886736170473e+00  1.0053246251730916e+00  8.2499346476232915e-01  8.1758240730315090e-01  8.1542096360239624e-01  8.1913655231563975e-01  8.2901417232534880e-01  8.4496649181290440e-01  8.6653280235869645e-01  8.9291134082422186e-01  9.2302972146643869e-01  9.5565402497830443e-01  9.8952837394517745e-01  1.0235264267557802e+00  1.0567886603454901e+00  1.0888184350838050e+00  1.1195167508182036e+00  1.1491481083056694e+00  1.1782436791708126e+00  1.2074588263385677e+00  1.2374075989727908e+00  1.2684973822204499e+00  1.3007844378218689e+00  1.3338679509027456e+00  1.3668376348667772e+00  1.3982874692451031e+00  1.4264039735983314e+00  1.4491296512608276e+00  1.4643902732082339e+00  1.4703601969089817e+00  1.4657268376582653e+00  1.4499086343387246e+00  1.4231842659971858e+00  1.3867054278532587e+00  1.3423882663401048e+00  1.2927035122940822e+00  1.2404052263734389e+00  1.1882472085542384e+00  1.1387325141279405e+00  1.0939274633837885e+00  1.0553525441643119e+00  1.0239450967623320e+00  1.0000775001379931e+00  9.8361153322596773e-01  9.7397327196167915e-01  9.7023982140640719e-01  9.7123543360429743e-01  9.7563723011626036e-01  9.8208893816676623e-01  9.8931605980889548e-01  9.9623058016165855e-01  1.0020107912356100e+00  1.0061439552588942e+00  8.0998680402313872e-01  8.0180960828009185e-01  7.9926374897480845e-01  8.0299710763871901e-01  8.1328732757847910e-01  8.3000951002005907e-01  8.5263277072477583e-01  8.8025186564753788e-01  9.1166126724895646e-01  9.4547449824635932e-01  9.8028100081582858e-01  1.0148198204230596e+00  1.0481395866029029e+00  1.0797126080407613e+00  1.1094788873232264e+00  1.1378108180421438e+00  1.1654058516148005e+00  1.1931271572194662e+00  1.2218183344255020e+00  1.2521179373760507e+00  1.2842956644720744e+00  1.3181277682537587e+00  1.3528264292417491e+00  1.3870361893338186e+00  1.4189078698951032e+00  1.4462540167518765e+00  1.4667783713463962e+00  1.4783563022123882e+00  1.4793274955925142e+00  1.4687520869075656e+00  1.4465818117038209e+00  1.4137107219895648e+00  1.3718933149817238e+00  1.3235454047705089e+00  1.2714667460033018e+00  1.2185374246589074e+00  1.1674391875983392e+00  1.1204397735799725e+00  1.0792584004111554e+00  1.0450108330757846e+00  1.0182186529729298e+00  9.9886208778398400e-01  9.8645815687066385e-01  9.8015255896555908e-01  9.7882052937602393e-01  9.8117557073151263e-01  9.8588424594736779e-01  9.9168110155130540e-01  9.9747291676521366e-01  1.0024188992235687e+00  1.0059751646101425e+00  7.9724294275383323e-01  7.8835646476337107e-01  7.8538288028031067e-01  7.8897356242480920e-01  7.9938461419929652e-01  8.1644250907657812e-01  8.3953864144525703e-01  8.6766077378724737e-01  8.9947133906552823e-01  9.3343748224272116e-01  9.6800532259560867e-01  1.0017953445313568e+00  1.0337839182978865e+00  1.0634337089298058e+00  1.0907450363285152e+00  1.1162178592669461e+00  1.1407333891127753e+00  1.1653788570219834e+00  1.1912451335540182e+00  1.2192252709451097e+00  1.2498361377676055e+00  1.2830793649679761e+00  1.3183544977775219e+00  1.3544365124835467e+00  1.3895292206891883e+00  1.4214020618318655e+00  1.4476079097714245e+00  1.4657640526146314e+00  1.4738610300433401e+00  1.4705504654987851e+00  1.4553594060551356e+00  1.4287883459501192e+00  1.3922719590203145e+00  1.3480099830625047e+00  1.2987024324845482e+00  1.2472405345859963e+00  1.1964080100405787e+00  1.1486369579553475e+00  1.1058434766541791e+00  1.0693472807123288e+00  1.0398633549733629e+00  1.0175456592139309e+00  1.0020630126391088e+00  9.9269267569009834e-01  9.8842378369088457e-01  9.8806723475439551e-01  9.9036924473018750e-01  9.9412307180882020e-01  9.9826958107178365e-01  1.0019751010060267e+00  1.0046763501851108e+00  7.8741383629897954e-01  7.7789555797087173e-01  7.7445475448328371e-01  7.7772834526907753e-01  7.8793588081250765e-01  8.0484366524880913e-01  8.2775830272899575e-01  8.5555934503278552e-01  8.8678318107450460e-01  9.1976455704936277e-01  9.5282788074071512e-01  9.8450257632876603e-01  1.0137231401175504e+00  1.0399721307841541e+00  1.0633352306383919e+00  1.0844578611037501e+00  1.1044148540370433e+00  1.1245206887439954e+00  1.1461137156314174e+00  1.1703443696342501e+00  1.1979890059718326e+00  1.2293029499554049e+00  1.2639221909120124e+00  1.3008232444519618e+00  1.3383524133622824e+00  1.3743348180389814e+00  1.4062666067248530e+00  1.4315798174790555e+00  1.4479512258614811e+00  1.4536099945527341e+00  1.4475907436512041e+00  1.4298834887406640e+00  1.4014501669117365e+00  1.3641047301884761e+00  1.3202821614967704e+00  1.2727429048360701e+00  1.2242673776958517e+00  1.1773893452978963e+00  1.1342005451892327e+00  1.0962385020674326e+00  1.0644515818985636e+00  1.0392243899529086e+00  1.0204436520802442e+00  1.0075877868184748e+00  9.9982897582182051e-01  9.9614129765699699e-01  9.9541043217846448e-01  9.9653950142124281e-01  9.9854331182024458e-01  1.0006217847875885e+00  1.0022044089152187e+00  7.8110430028085176e-01  7.7105451053108154e-01  7.6711634538049100e-01  7.6989413028034270e-01  7.7955601495923033e-01  7.9579738954250068e-01  8.1783506713021970e-01  8.4444332383254272e-01  8.7404537510873226e-01  9.0486722549155552e-01  9.3514493351746408e-01  9.6335665985291330e-01  9.8843622786567042e-01  1.0099229175199915e+00  1.0280149863353210e+00  1.0435173979270114e+00  1.0576985667662822e+00  1.0720879336213751e+00  1.0882513654859298e+00  1.1075757887364466e+00  1.1310833180720286e+00  1.1592847253326963e+00  1.1920767997119008e+00  1.2286888417746364e+00  1.2676875811700803e+00  1.3070525509047493e+00  1.3443308992063647e+00  1.3768696475337405e+00  1.4021061101848062e+00  1.4178787536475987e+00  1.4227081300133220e+00  1.4159965210272516e+00  1.3981077112255631e+00  1.3703121076717424e+00  1.3346104498451139e+00  1.2934733321316658e+00  1.2495470306273262e+00  1.2053759571184639e+00  1.1631802940505682e+00  1.1247092162364085e+00  1.0911718529424228e+00  1.0632347376058184e+00  1.0410681056925084e+00  1.0244233282570585e+00  1.0127274268398128e+00  1.0051850073708486e+00  1.0008809214205903e+00  9.9887783309656264e-01  9.9830234931624506e-01  9.9841291276475053e-01  9.9864358303613521e-01  7.7887241179627287e-01  7.6841866947497284e-01  7.6396956796833804e-01  7.6607906649059299e-01  7.7485022619169364e-01  7.8989906613902150e-01  8.1035158466489576e-01  8.3488597149900934e-01  8.6183396449776506e-01  8.8934756788250713e-01  9.1562012710465113e-01  9.3913008762582217e-01  9.5886104647718406e-01  9.7445080885393132e-01  9.8623699848509627e-01  9.9519205905328101e-01  1.0027664562547292e+00  1.0106761963931803e+00  1.0206747268515652e+00  1.0343413053634323e+00  1.0529039643377791e+00  1.0771023781385984e+00  1.1070893627901985e+00  1.1423707114484765e+00  1.1817891341655711e+00  1.2235643668087737e+00  1.2654028783087277e+00  1.3046837578897801e+00  1.3387125137125102e+00  1.3650157020219140e+00  1.3816331190705671e+00  1.3873572964163294e+00  1.3818760159403769e+00  1.3657917669123005e+00  1.3405174166024891e+00  1.3080723633234248e+00  1.2708210106505833e+00  1.2312013728476110e+00  1.1914858921331102e+00  1.1536025992015047e+00  1.1190279006506436e+00  1.0887475608058965e+00  1.0632729819142159e+00  1.0426963187221709e+00  1.0267689283377286e+00  1.0149908651623727e+00  1.0067024851091404e+00  1.0011715374989409e+00  9.9767028558335658e-01  9.9553785158842156e-01  9.9422396486649278e-01  7.8123517984401802e-01  7.7053922681654374e-01  7.6559098086808852e-01  7.6687685763180624e-01  7.7442313401563190e-01  7.8776176209781468e-01  8.0593281094146507e-01  8.2753582456005470e-01  8.5084312392177697e-01  8.7397910943936230e-01  8.9515158540484707e-01  9.1290049048557220e-01  9.2631574088296098e-01  9.3517683763466009e-01  9.3998382748141196e-01  9.4187617663208378e-01  9.4246277701923986e-01  9.4360303838308646e-01  9.4718125513231533e-01  9.5490604403167056e-01  9.6815016296674128e-01  9.8783112286945851e-01  1.0143252209200631e+00  1.0474085876159704e+00  1.0862263454370931e+00  1.1293002687045020e+00  1.1745909865313102e+00  1.2196286625823400e+00  1.2617150546069569e+00  1.2981824604716481e+00  1.3266769265973684e+00  1.3454208954152933e+00  1.3534092377687674e+00  1.3505036712404168e+00  1.3374109488255210e+00  1.3155538709628010e+00  1.2868643261531798e+00  1.2535390620461522e+00  1.2177998007365418e+00  1.1816911098147278e+00  1.1469359542154336e+00  1.1148545937058680e+00  1.0863410758134482e+00  1.0618848250751403e+00  1.0416227096609565e+00  1.0254081715288084e+00  1.0128868088661613e+00  1.0035707638952158e+00  9.9690661963011407e-01  9.9233313074582241e-01  9.8932630130123300e-01  7.8867449322571315e-01  7.7794144615181082e-01  7.7254140356530432e-01  7.7287644868142591e-01  7.7888686385129402e-01  7.9002080489188831e-01  8.0524485154190950e-01  8.2310715651862998e-01  8.4186388922619892e-01  8.5966945731575406e-01  8.7481283579081826e-01  8.8596290838347569e-01  8.9237426322053315e-01  8.9400830485141491e-01  8.9154339264176885e-01  8.8627545832116350e-01  8.7993670368700683e-01  8.7447515894147654e-01  8.7183799028537345e-01  8.7378885120860605e-01  8.8177118672384269e-01  8.9681309550867816e-01  9.1946072668647594e-01  9.4972796983718399e-01  9.8705844124360154e-01  1.0303070932281799e+00  1.0777579451456749e+00  1.1271969717677699e+00  1.1760528257759326e+00  1.2216037798049033e+00  1.2612312264405232e+00  1.2926843292196608e+00  1.3143126444624071e+00  1.3252267949295309e+00  1.3253608724574590e+00  1.3154301042787404e+00  1.2967976387528362e+00  1.2712796836443250e+00  1.2409253541560583e+00  1.2078059753130475e+00  1.1738402349021893e+00  1.1406698936981827e+00  1.1095892106145304e+00  1.0815223718928273e+00  1.0570381550896191e+00  1.0363896275839573e+00  1.0195678496192924e+00  1.0063610264085081e+00  9.9641322204294791e-01  9.8927892610196455e-01  9.8447122264105702e-01  8.0163817469010190e-01  7.9112747364631542e-01  7.8536983180771924e-01  7.8466590240111911e-01  7.8886325391877654e-01  7.9733219419552515e-01  8.0898690105187654e-01  8.2236209255085113e-01  8.3575226641834599e-01  8.4740927349175621e-01  8.5577656981055839e-01  8.5972150523542057e-01  8.5871882771932384e-01  8.5294488155437609e-01  8.4326226082566513e-01  8.3110203591988396e-01  8.1827496147309364e-01  8.0675571442224270e-01  7.9848191395576862e-01  7.9519533106460960e-01  7.9833332379662469e-01  8.0896178536296759e-01  8.2773203168783582e-01  8.5484465280516442e-01  8.9001166118134134e-01  9.3242045649388050e-01  9.8071456264997792e-01  1.0330124757734986e+00  1.0869844021867379e+00  1.1399967035115428e+00  1.1893179576098780e+00  1.2323634967926151e+00  1.2669426248500535e+00  1.2914686354147344e+00  1.3050975929911788e+00  1.3077757380462920e+00  1.3001931734816243e+00  1.2836583079043997e+00  1.2599193940787012e+00  1.2309643667481389e+00  1.1988281797604763e+00  1.1654297907253834e+00  1.1324514927839719e+00  1.1012640281837462e+00  1.0728936989477791e+00  1.0480233811980371e+00  1.0270178873625431e+00  1.0099648001802284e+00  9.9672374510384543e-01  9.8697914545048993e-01  9.8029316242850695e-01  8.2053142834686144e-01  8.1056862765104309e-01  8.0460639910887033e-01  8.0282537537993903e-01  8.0497560398918200e-01  8.1036121428346508e-01  8.1787406636964366e-01  8.2608418918166171e-01  8.3338931165207608e-01  8.3821391148920554e-01  8.3923247451554595e-01  8.3557823494785333e-01  8.2699456294865614e-01  8.1389539318870163e-01  7.9732202447853595e-01  7.7880926329964251e-01  7.6019496677298892e-01  7.4341628662805015e-01  7.3033114088469331e-01  7.2258801500736125e-01  7.2154793933286310e-01  7.2824641362667242e-01  7.4337471431448610e-01  7.6726058854183077e-01  7.9983617781152927e-01  8.4059292212297876e-01  8.8853542850459144e-01  9.4215519467208009e-01  9.9944769764896313e-01  1.0579912186465241e+00  1.1150936533427251e+00  1.1679975852084332e+00  1.2141187018555424e+00  1.2512827258439392e+00  1.2779242323625022e+00  1.2932173008149754e+00  1.2971207546309813e+00  1.2903361886588840e+00  1.2741912726323039e+00  1.2504710286581049e+00  1.2212244446953187e+00  1.1885729540402810e+00  1.1545422041749924e+00  1.1209310117202389e+00  1.0892233968066731e+00  1.0605427113931043e+00  1.0356421189156320e+00  1.0149233506717812e+00  9.9847543689755069e-01  9.8612624155711037e-01  9.7750122916865811e-01  8.4569488054749753e-01  8.3668288661981005e-01  8.3073984373201837e-01  8.2790469965664737e-01  8.2782590034296799e-01  8.2975805724603124e-01  8.3260927580899391e-01  8.3504366624845516e-01  8.3563603913340412e-01  8.3306401026773025e-01  8.2630967709463410e-01  8.1483403821339451e-01  7.9868764456323715e-01  7.7853272311595889e-01  7.5557253014237069e-01  7.3140624104027341e-01  7.0784436895573144e-01  6.8672497135926980e-01  6.6976384119356625e-01  6.5845621666473586e-01  6.5402957115691740e-01  6.5743274903006155e-01  6.6933965632714310e-01  6.9014649072986423e-01  7.1994851922918357e-01  7.5849312492134224e-01  8.0511749940813326e-01  8.5868925523820216e-01  9.1757383413656890e-01  9.7965195629325030e-01  1.0424029209783616e+00  1.1030566920863001e+00  1.1588025410014988e+00  1.2070285755366066e+00  1.2455582731352608e+00  1.2728490989043391e+00  1.2881243641476212e+00  1.2914208864276862e+00  1.2835489637357904e+00  1.2659747069157605e+00  1.2406453997918379e+00  1.2097846697320582e+00  1.1756852828488005e+00  1.1405237657060181e+00  1.1062140762594408e+00  1.0743090161106679e+00  1.0459499260033123e+00  1.0218590089027895e+00  1.0023651972441345e+00  9.8745372804273890e-01  9.7683066724593859e-01  8.7736674177335594e-01  8.6979451371939787e-01  8.6417599405619294e-01  8.6038193189325440e-01  8.5795409535515188e-01  8.5611768538256838e-01  8.5384262536427658e-01  8.4995425344420994e-01  8.4328520251080785e-01  8.3284958301122447e-01  8.1801110557432843e-01  7.9861268257695750e-01  7.7503955395568469e-01  7.4820134986409159e-01  7.1943728471933277e-01  6.9036683898418527e-01  6.6271970526065316e-01  6.3817986969933704e-01  6.1826983639743338e-01  6.0428605536593749e-01  5.9728101673345779e-01  5.9807589156684660e-01  6.0728242202506844e-01  6.2531396349242907e-01  6.5237162134894000e-01  6.8840035482122208e-01  7.3301995767228134e-01  7.8544530614071484e-01  8.4441738725848703e-01  9.0816951173261740e-01  9.7445038533762318e-01  1.0406171957781349e+00  1.1037990265292481e+00  1.1611165533604573e+00  1.2099314637524634e+00  1.2480912619593951e+00  1.2741337935872799e+00  1.2874211751767684e+00  1.2881837066040802e+00  1.2774686127146535e+00  1.2570033650641452e+00  1.2289960482120064e+00  1.1959033652951203e+00  1.1601989855557548e+00  1.1241709396868231e+00  1.0897680467068798e+00  1.0585044081732302e+00  1.0314206851685108e+00  1.0090934533485161e+00  9.9168039988203160e-01  9.7898903619035293e-01  9.1562848447703304e-01  9.1007456453921609e-01  9.0517542897607051e-01  9.0060062098759064e-01  8.9577707826511088e-01  8.8992181329491649e-01  8.8211665854259980e-01  8.7142109017810998e-01  8.5701054663821208e-01  8.3831938625132063e-01  8.1516250102554744e-01  7.8781034204638212e-01  7.5699992082084455e-01  7.2387791615806740e-01  6.8988758855041810e-01  6.5662389498926699e-01  6.2568693397501651e-01  5.9856104583759362e-01  5.7653700829362331e-01  5.6068151853346981e-01  5.5184582632115675e-01  5.5069714703737427e-01  5.5775352714740845e-01  5.7340457820930479e-01  5.9790550479638416e-01  6.3133874524093159e-01  6.7354537174405449e-01  7.2403642529098977e-01  7.8190162111064454e-01  8.4573791778414886e-01  9.1362165837995080e-01  9.8314416513683911e-01  1.0515216949646113e+00  1.1157778218055752e+00  1.1729820516480662e+00  1.2205158126122244e+00  1.2563287551170641e+00  1.2791466097285151e+00  1.2885974976310171e+00  1.2852358918271798e+00  1.2704602103386777e+00  1.2463379180023206e+00  1.2153671293302122e+00  1.1802126045156505e+00  1.1434547809025450e+00  1.1073833715292847e+00  1.0738545945089280e+00  1.0442171297266363e+00  1.0193002236768673e+00  9.9945035805379256e-01  9.8460088818510272e-01  9.6033605452936421e-01  9.5746374470603213e-01  9.5377112248255258e-01  9.4868595593856408e-01  9.4150697748900891e-01  9.3146233372345888e-01  9.1779680813079634e-01  8.9987896713367777e-01  8.7731288123221063e-01  8.5003474802133006e-01  8.1837453671178617e-01  7.8306773349054548e-01  7.4521184063080415e-01  7.0617417870483212e-01  6.6746836162953582e-01  6.3062326040014649e-01  5.9706841914117514e-01  5.6805393254185110e-01  5.4461291038813175e-01  5.2756403448212008e-01  5.1754327108300369e-01  5.1504918143479828e-01  5.2048558054184335e-01  5.3418756426751013e-01  5.5642092352140882e-01  5.8734983797516593e-01  6.2697319640649329e-01  6.7503590949647541e-01  7.3092792975222265e-01  7.9358954585587349e-01  8.6144544096888420e-01  9.3239034307170177e-01  1.0038446080486152e+00  1.0728885287493573e+00  1.1364706520828720e+00  1.1916702764302431e+00  1.2359808032710191e+00  1.2675720946366005e+00  1.2854891289820385e+00  1.2897522433146558e+00  1.2813401997842666e+00  1.2620581114383216e+00  1.2343131413142316e+00  1.2008366752845812e+00  1.1643984000510896e+00  1.1275540646333122e+00  1.0924565146686680e+00  1.0607431858791014e+00  1.0334976985734767e+00  1.0112723800963155e+00  9.9415388475974142e-01  1.0110421444862030e+00  1.0115829641478573e+00  1.0096709096918939e+00  1.0044438659769632e+00  9.9505195336008989e-01  9.8074838983397505e-01  9.6098826282601335e-01  9.3552122958935291e-01  9.0446223614433485e-01  8.6832573328113227e-01  8.2801395398535682e-01  7.8475788079169995e-01  7.4001878150778022e-01  6.9536621933621623e-0