<?xml version="1.0"?>
<VTKFile type="UnstructuredGrid"  version="0.1"  >
<UnstructuredGrid>
<Piece  NumberOfPoints="2601" NumberOfCells="5000">
<Points>
<DataArray  type="Float64"  NumberOfComponents="3"  format="ascii">0 0 0  0.02 0 0  0.04 0 0  0.06 0 0  0.08 0 0  0.1 0 0  0.12 0 0  0.14 0 0  0.16 0 0  0.18 0 0  0.2 0 0  0.22 0 0  0.24 0 0  0.26 0 0  0.28 0 0  0.3 0 0  0.32 0 0  0.34 0 0  0.36 0 0  0.38 0 0  0.4 0 0  0.42 0 0  0.44 0 0  0.46 0 0  0.48 0 0  0.5 0 0  0.52 0 0  0.54 0 0  0.5600000000000001 0 0  0.58 0 0  0.6 0 0  0.62 0 0  0.64 0 0  0.66 0 0  0.68 0 0  0.7 0 0  0.72 0 0  0.74 0 0  0.76 0 0  0.78 0 0  0.8 0 0  0.82 0 0  0.84 0 0  0.86 0 0  0.88 0 0  0.9 0 0  0.92 0 0  0.9399999999999999 0 0  0.96 0 0  0.98 0 0  1 0 0  0 0.02 0  0.02 0.02 0  0.04 0.02 0  0.06 0.02 0  0.08 0.02 0  0.1 0.02 0  0.12 0.02 0  0.14 0.02 0  0.16 0.02 0  0.18 0.02 0  0.2 0.02 0  0.22 0.02 0  0.24 0.02 0  0.26 0.02 0  0.28 0.02 0  0.3 0.02 0  0.32 0.02 0  0.34 0.02 0  0.36 0.02 0  0.38 0.02 0  0.4 0.02 0  0.42 0.02 0  0.44 0.02 0  0.46 0.02 0  0.48 0.02 0  0.5 0.02 0  0.52 0.02 0  0.54 0.02 0  0.5600000000000001 0.02 0  0.58 0.02 0  0.6 0.02 0  0.62 0.02 0  0.64 0.02 0  0.66 0.02 0  0.68 0.02 0  0.7 0.02 0  0.72 0.02 0  0.74 0.02 0  0.76 0.02 0  0.78 0.02 0  0.8 0.02 0  0.82 0.02 0  0.84 0.02 0  0.86 0.02 0  0.88 0.02 0  0.9 0.02 0  0.92 0.02 0  0.9399999999999999 0.02 0  0.96 0.02 0  0.98 0.02 0  1 0.02 0  0 0.04 0  0.02 0.04 0  0.04 0.04 0  0.06 0.04 0  0.08 0.04 0  0.1 0.04 0  0.12 0.04 0  0.14 0.04 0  0.16 0.04 0  0.18 0.04 0  0.2 0.04 0  0.22 0.04 0  0.24 0.04 0  0.26 0.04 0  0.28 0.04 0  0.3 0.04 0  0.32 0.04 0  0.34 0.04 0  0.36 0.04 0  0.38 0.04 0  0.4 0.04 0  0.42 0.04 0  0.44 0.04 0  0.46 0.04 0  0.48 0.04 0  0.5 0.04 0  0.52 0.04 0  0.54 0.04 0  0.5600000000000001 0.04 0  0.58 0.04 0  0.6 0.04 0  0.62 0.04 0  0.64 0.04 0  0.66 0.04 0  0.68 0.04 0  0.7 0.04 0  0.72 0.04 0  0.74 0.04 0  0.76 0.04 0  0.78 0.04 0  0.8 0.04 0  0.82 0.04 0  0.84 0.04 0  0.86 0.04 0  0.88 0.04 0  0.9 0.04 0  0.92 0.04 0  0.9399999999999999 0.04 0  0.96 0.04 0  0.98 0.04 0  1 0.04 0  0 0.06 0  0.02 0.06 0  0.04 0.06 0  0.06 0.06 0  0.08 0.06 0  0.1 0.06 0  0.12 0.06 0  0.14 0.06 0  0.16 0.06 0  0.18 0.06 0  0.2 0.06 0  0.22 0.06 0  0.24 0.06 0  0.26 0.06 0  0.28 0.06 0  0.3 0.06 0  0.32 0.06 0  0.34 0.06 0  0.36 0.06 0  0.38 0.06 0  0.4 0.06 0  0.42 0.06 0  0.44 0.06 0  0.46 0.06 0  0.48 0.06 0  0.5 0.06 0  0.52 0.06 0  0.54 0.06 0  0.5600000000000001 0.06 0  0.58 0.06 0  0.6 0.06 0  0.62 0.06 0  0.64 0.06 0  0.66 0.06 0  0.68 0.06 0  0.7 0.06 0  0.72 0.06 0  0.74 0.06 0  0.76 0.06 0  0.78 0.06 0  0.8 0.06 0  0.82 0.06 0  0.84 0.06 0  0.86 0.06 0  0.88 0.06 0  0.9 0.06 0  0.92 0.06 0  0.9399999999999999 0.06 0  0.96 0.06 0  0.98 0.06 0  1 0.06 0  0 0.08 0  0.02 0.08 0  0.04 0.08 0  0.06 0.08 0  0.08 0.08 0  0.1 0.08 0  0.12 0.08 0  0.14 0.08 0  0.16 0.08 0  0.18 0.08 0  0.2 0.08 0  0.22 0.08 0  0.24 0.08 0  0.26 0.08 0  0.28 0.08 0  0.3 0.08 0  0.32 0.08 0  0.34 0.08 0  0.36 0.08 0  0.38 0.08 0  0.4 0.08 0  0.42 0.08 0  0.44 0.08 0  0.46 0.08 0  0.48 0.08 0  0.5 0.08 0  0.52 0.08 0  0.54 0.08 0  0.5600000000000001 0.08 0  0.58 0.08 0  0.6 0.08 0  0.62 0.08 0  0.64 0.08 0  0.66 0.08 0  0.68 0.08 0  0.7 0.08 0  0.72 0.08 0  0.74 0.08 0  0.76 0.08 0  0.78 0.08 0  0.8 0.08 0  0.82 0.08 0  0.84 0.08 0  0.86 0.08 0  0.88 0.08 0  0.9 0.08 0  0.92 0.08 0  0.9399999999999999 0.08 0  0.96 0.08 0  0.98 0.08 0  1 0.08 0  0 0.1 0  0.02 0.1 0  0.04 0.1 0  0.06 0.1 0  0.08 0.1 0  0.1 0.1 0  0.12 0.1 0  0.14 0.1 0  0.16 0.1 0  0.18 0.1 0  0.2 0.1 0  0.22 0.1 0  0.24 0.1 0  0.26 0.1 0  0.28 0.1 0  0.3 0.1 0  0.32 0.1 0  0.34 0.1 0  0.36 0.1 0  0.38 0.1 0  0.4 0.1 0  0.42 0.1 0  0.44 0.1 0  0.46 0.1 0  0.48 0.1 0  0.5 0.1 0  0.52 0.1 0  0.54 0.1 0  0.5600000000000001 0.1 0  0.58 0.1 0  0.6 0.1 0  0.62 0.1 0  0.64 0.1 0  0.66 0.1 0  0.68 0.1 0  0.7 0.1 0  0.72 0.1 0  0.74 0.1 0  0.76 0.1 0  0.78 0.1 0  0.8 0.1 0  0.82 0.1 0  0.84 0.1 0  0.86 0.1 0  0.88 0.1 0  0.9 0.1 0  0.92 0.1 0  0.9399999999999999 0.1 0  0.96 0.1 0  0.98 0.1 0  1 0.1 0  0 0.12 0  0.02 0.12 0  0.04 0.12 0  0.06 0.12 0  0.08 0.12 0  0.1 0.12 0  0.12 0.12 0  0.14 0.12 0  0.16 0.12 0  0.18 0.12 0  0.2 0.12 0  0.22 0.12 0  0.24 0.12 0  0.26 0.12 0  0.28 0.12 0  0.3 0.12 0  0.32 0.12 0  0.34 0.12 0  0.36 0.12 0  0.38 0.12 0  0.4 0.12 0  0.42 0.12 0  0.44 0.12 0  0.46 0.12 0  0.48 0.12 0  0.5 0.12 0  0.52 0.12 0  0.54 0.12 0  0.5600000000000001 0.12 0  0.58 0.12 0  0.6 0.12 0  0.62 0.12 0  0.64 0.12 0  0.66 0.12 0  0.68 0.12 0  0.7 0.12 0  0.72 0.12 0  0.74 0.12 0  0.76 0.12 0  0.78 0.12 0  0.8 0.12 0  0.82 0.12 0  0.84 0.12 0  0.86 0.12 0  0.88 0.12 0  0.9 0.12 0  0.92 0.12 0  0.9399999999999999 0.12 0  0.96 0.12 0  0.98 0.12 0  1 0.12 0  0 0.14 0  0.02 0.14 0  0.04 0.14 0  0.06 0.14 0  0.08 0.14 0  0.1 0.14 0  0.12 0.14 0  0.14 0.14 0  0.16 0.14 0  0.18 0.14 0  0.2 0.14 0  0.22 0.14 0  0.24 0.14 0  0.26 0.14 0  0.28 0.14 0  0.3 0.14 0  0.32 0.14 0  0.34 0.14 0  0.36 0.14 0  0.38 0.14 0  0.4 0.14 0  0.42 0.14 0  0.44 0.14 0  0.46 0.14 0  0.48 0.14 0  0.5 0.14 0  0.52 0.14 0  0.54 0.14 0  0.5600000000000001 0.14 0  0.58 0.14 0  0.6 0.14 0  0.62 0.14 0  0.64 0.14 0  0.66 0.14 0  0.68 0.14 0  0.7 0.14 0  0.72 0.14 0  0.74 0.14 0  0.76 0.14 0  0.78 0.14 0  0.8 0.14 0  0.82 0.14 0  0.84 0.14 0  0.86 0.14 0  0.88 0.14 0  0.9 0.14 0  0.92 0.14 0  0.9399999999999999 0.14 0  0.96 0.14 0  0.98 0.14 0  1 0.14 0  0 0.16 0  0.02 0.16 0  0.04 0.16 0  0.06 0.16 0  0.08 0.16 0  0.1 0.16 0  0.12 0.16 0  0.14 0.16 0  0.16 0.16 0  0.18 0.16 0  0.2 0.16 0  0.22 0.16 0  0.24 0.16 0  0.26 0.16 0  0.28 0.16 0  0.3 0.16 0  0.32 0.16 0  0.34 0.16 0  0.36 0.16 0  0.38 0.16 0  0.4 0.16 0  0.42 0.16 0  0.44 0.16 0  0.46 0.16 0  0.48 0.16 0  0.5 0.16 0  0.52 0.16 0  0.54 0.16 0  0.5600000000000001 0.16 0  0.58 0.16 0  0.6 0.16 0  0.62 0.16 0  0.64 0.16 0  0.66 0.16 0  0.68 0.16 0  0.7 0.16 0  0.72 0.16 0  0.74 0.16 0  0.76 0.16 0  0.78 0.16 0  0.8 0.16 0  0.82 0.16 0  0.84 0.16 0  0.86 0.16 0  0.88 0.16 0  0.9 0.16 0  0.92 0.16 0  0.9399999999999999 0.16 0  0.96 0.16 0  0.98 0.16 0  1 0.16 0  0 0.18 0  0.02 0.18 0  0.04 0.18 0  0.06 0.18 0  0.08 0.18 0  0.1 0.18 0  0.12 0.18 0  0.14 0.18 0  0.16 0.18 0  0.18 0.18 0  0.2 0.18 0  0.22 0.18 0  0.24 0.18 0  0.26 0.18 0  0.28 0.18 0  0.3 0.18 0  0.32 0.18 0  0.34 0.18 0  0.36 0.18 0  0.38 0.18 0  0.4 0.18 0  0.42 0.18 0  0.44 0.18 0  0.46 0.18 0  0.48 0.18 0  0.5 0.18 0  0.52 0.18 0  0.54 0.18 0  0.5600000000000001 0.18 0  0.58 0.18 0  0.6 0.18 0  0.62 0.18 0  0.64 0.18 0  0.66 0.18 0  0.68 0.18 0  0.7 0.18 0  0.72 0.18 0  0.74 0.18 0  0.76 0.18 0  0.78 0.18 0  0.8 0.18 0  0.82 0.18 0  0.84 0.18 0  0.86 0.18 0  0.88 0.18 0  0.9 0.18 0  0.92 0.18 0  0.9399999999999999 0.18 0  0.96 0.18 0  0.98 0.18 0  1 0.18 0  0 0.2 0  0.02 0.2 0  0.04 0.2 0  0.06 0.2 0  0.08 0.2 0  0.1 0.2 0  0.12 0.2 0  0.14 0.2 0  0.16 0.2 0  0.18 0.2 0  0.2 0.2 0  0.22 0.2 0  0.24 0.2 0  0.26 0.2 0  0.28 0.2 0  0.3 0.2 0  0.32 0.2 0  0.34 0.2 0  0.36 0.2 0  0.38 0.2 0  0.4 0.2 0  0.42 0.2 0  0.44 0.2 0  0.46 0.2 0  0.48 0.2 0  0.5 0.2 0  0.52 0.2 0  0.54 0.2 0  0.5600000000000001 0.2 0  0.58 0.2 0  0.6 0.2 0  0.62 0.2 0  0.64 0.2 0  0.66 0.2 0  0.68 0.2 0  0.7 0.2 0  0.72 0.2 0  0.74 0.2 0  0.76 0.2 0  0.78 0.2 0  0.8 0.2 0  0.82 0.2 0  0.84 0.2 0  0.86 0.2 0  0.88 0.2 0  0.9 0.2 0  0.92 0.2 0  0.9399999999999999 0.2 0  0.96 0.2 0  0.98 0.2 0  1 0.2 0  0 0.22 0  0.02 0.22 0  0.04 0.22 0  0.06 0.22 0  0.08 0.22 0  0.1 0.22 0  0.12 0.22 0  0.14 0.22 0  0.16 0.22 0  0.18 0.22 0  0.2 0.22 0  0.22 0.22 0  0.24 0.22 0  0.26 0.22 0  0.28 0.22 0  0.3 0.22 0  0.32 0.22 0  0.34 0.22 0  0.36 0.22 0  0.38 0.22 0  0.4 0.22 0  0.42 0.22 0  0.44 0.22 0  0.46 0.22 0  0.48 0.22 0  0.5 0.22 0  0.52 0.22 0  0.54 0.22 0  0.5600000000000001 0.22 0  0.58 0.22 0  0.6 0.22 0  0.62 0.22 0  0.64 0.22 0  0.66 0.22 0  0.68 0.22 0  0.7 0.22 0  0.72 0.22 0  0.74 0.22 0  0.76 0.22 0  0.78 0.22 0  0.8 0.22 0  0.82 0.22 0  0.84 0.22 0  0.86 0.22 0  0.88 0.22 0  0.9 0.22 0  0.92 0.22 0  0.9399999999999999 0.22 0  0.96 0.22 0  0.98 0.22 0  1 0.22 0  0 0.24 0  0.02 0.24 0  0.04 0.24 0  0.06 0.24 0  0.08 0.24 0  0.1 0.24 0  0.12 0.24 0  0.14 0.24 0  0.16 0.24 0  0.18 0.24 0  0.2 0.24 0  0.22 0.24 0  0.24 0.24 0  0.26 0.24 0  0.28 0.24 0  0.3 0.24 0  0.32 0.24 0  0.34 0.24 0  0.36 0.24 0  0.38 0.24 0  0.4 0.24 0  0.42 0.24 0  0.44 0.24 0  0.46 0.24 0  0.48 0.24 0  0.5 0.24 0  0.52 0.24 0  0.54 0.24 0  0.5600000000000001 0.24 0  0.58 0.24 0  0.6 0.24 0  0.62 0.24 0  0.64 0.24 0  0.66 0.24 0  0.68 0.24 0  0.7 0.24 0  0.72 0.24 0  0.74 0.24 0  0.76 0.24 0  0.78 0.24 0  0.8 0.24 0  0.82 0.24 0  0.84 0.24 0  0.86 0.24 0  0.88 0.24 0  0.9 0.24 0  0.92 0.24 0  0.9399999999999999 0.24 0  0.96 0.24 0  0.98 0.24 0  1 0.24 0  0 0.26 0  0.02 0.26 0  0.04 0.26 0  0.06 0.26 0  0.08 0.26 0  0.1 0.26 0  0.12 0.26 0  0.14 0.26 0  0.16 0.26 0  0.18 0.26 0  0.2 0.26 0  0.22 0.26 0  0.24 0.26 0  0.26 0.26 0  0.28 0.26 0  0.3 0.26 0  0.32 0.26 0  0.34 0.26 0  0.36 0.26 0  0.38 0.26 0  0.4 0.26 0  0.42 0.26 0  0.44 0.26 0  0.46 0.26 0  0.48 0.26 0  0.5 0.26 0  0.52 0.26 0  0.54 0.26 0  0.5600000000000001 0.26 0  0.58 0.26 0  0.6 0.26 0  0.62 0.26 0  0.64 0.26 0  0.66 0.26 0  0.68 0.26 0  0.7 0.26 0  0.72 0.26 0  0.74 0.26 0  0.76 0.26 0  0.78 0.26 0  0.8 0.26 0  0.82 0.26 0  0.84 0.26 0  0.86 0.26 0  0.88 0.26 0  0.9 0.26 0  0.92 0.26 0  0.9399999999999999 0.26 0  0.96 0.26 0  0.98 0.26 0  1 0.26 0  0 0.28 0  0.02 0.28 0  0.04 0.28 0  0.06 0.28 0  0.08 0.28 0  0.1 0.28 0  0.12 0.28 0  0.14 0.28 0  0.16 0.28 0  0.18 0.28 0  0.2 0.28 0  0.22 0.28 0  0.24 0.28 0  0.26 0.28 0  0.28 0.28 0  0.3 0.28 0  0.32 0.28 0  0.34 0.28 0  0.36 0.28 0  0.38 0.28 0  0.4 0.28 0  0.42 0.28 0  0.44 0.28 0  0.46 0.28 0  0.48 0.28 0  0.5 0.28 0  0.52 0.28 0  0.54 0.28 0  0.5600000000000001 0.28 0  0.58 0.28 0  0.6 0.28 0  0.62 0.28 0  0.64 0.28 0  0.66 0.28 0  0.68 0.28 0  0.7 0.28 0  0.72 0.28 0  0.74 0.28 0  0.76 0.28 0  0.78 0.28 0  0.8 0.28 0  0.82 0.28 0  0.84 0.28 0  0.86 0.28
[...]
<PointData  Vectors="f_20"> 
<DataArray  type="Float64"  Name="f_20"  NumberOfComponents="3" format="ascii">0.0000000000000000e+00 0.0000000000000000e+00 0.0000000000000000e+00  4.0000000000000003e-05 0.0000000000000000e+00 0.0000000000000000e+00  1.6000000000000001e-04 0.0000000000000000e+00 0.0000000000000000e+00  3.5999999999999997e-04 0.0000000000000000e+00 0.0000000000000000e+00  6.4000000000000005e-04 0.0000000000000000e+00 0.0000000000000000e+00  1.0000000000000002e-03 0.0000000000000000e+00 0.0000000000000000e+00  1.4399999999999999e-03 0.0000000000000000e+00 0.0000000000000000e+00  1.9600000000000004e-03 0.0000000000000000e+00 0.0000000000000000e+00  2.5600000000000002e-03 0.0000000000000000e+00 0.0000000000000000e+00  3.2399999999999998e-03 0.0000000000000000e+00 0.0000000000000000e+00  4.0000000000000010e-03 0.0000000000000000e+00 0.0000000000000000e+00  4.8400000000000006e-03 0.0000000000000000e+00 0.0000000000000000e+00  5.7599999999999995e-03 0.0000000000000000e+00 0.0000000000000000e+00  6.7600000000000013e-03 0.0000000000000000e+00 0.0000000000000000e+00  7.8400000000000015e-03 0.0000000000000000e+00 0.0000000000000000e+00  8.9999999999999993e-03 0.0000000000000000e+00 0.0000000000000000e+00  1.0240000000000001e-02 0.0000000000000000e+00 0.0000000000000000e+00  1.1560000000000001e-02 0.0000000000000000e+00 0.0000000000000000e+00  1.2959999999999999e-02 0.0000000000000000e+00 0.0000000000000000e+00  1.4440000000000003e-02 0.0000000000000000e+00 0.0000000000000000e+00  1.6000000000000004e-02 0.0000000000000000e+00 0.0000000000000000e+00  1.7639999999999999e-02 0.0000000000000000e+00 0.0000000000000000e+00  1.9360000000000002e-02 0.0000000000000000e+00 0.0000000000000000e+00  2.1160000000000005e-02 0.0000000000000000e+00 0.0000000000000000e+00  2.3039999999999998e-02 0.0000000000000000e+00 0.0000000000000000e+00  2.5000000000000001e-02 0.0000000000000000e+00 0.0000000000000000e+00  2.7040000000000005e-02 0.0000000000000000e+00 0.0000000000000000e+00  2.9160000000000005e-02 0.0000000000000000e+00 0.0000000000000000e+00  3.1360000000000006e-02 0.0000000000000000e+00 0.0000000000000000e+00  3.3639999999999996e-02 0.0000000000000000e+00 0.0000000000000000e+00  3.5999999999999997e-02 0.0000000000000000e+00 0.0000000000000000e+00  3.8440000000000002e-02 0.0000000000000000e+00 0.0000000000000000e+00  4.0960000000000003e-02 0.0000000000000000e+00 0.0000000000000000e+00  4.3560000000000001e-02 0.0000000000000000e+00 0.0000000000000000e+00  4.6240000000000003e-02 0.0000000000000000e+00 0.0000000000000000e+00  4.8999999999999995e-02 0.0000000000000000e+00 0.0000000000000000e+00  5.1839999999999997e-02 0.0000000000000000e+00 0.0000000000000000e+00  5.4759999999999996e-02 0.0000000000000000e+00 0.0000000000000000e+00  5.7760000000000013e-02 0.0000000000000000e+00 0.0000000000000000e+00  6.0840000000000012e-02 0.0000000000000000e+00 0.0000000000000000e+00  6.4000000000000015e-02 0.0000000000000000e+00 0.0000000000000000e+00  6.7239999999999994e-02 0.0000000000000000e+00 0.0000000000000000e+00  7.0559999999999998e-02 0.0000000000000000e+00 0.0000000000000000e+00  7.3959999999999998e-02 0.0000000000000000e+00 0.0000000000000000e+00  7.7440000000000009e-02 0.0000000000000000e+00 0.0000000000000000e+00  8.1000000000000016e-02 0.0000000000000000e+00 0.0000000000000000e+00  8.4640000000000021e-02 0.0000000000000000e+00 0.0000000000000000e+00  8.8359999999999994e-02 0.0000000000000000e+00 0.0000000000000000e+00  9.2159999999999992e-02 0.0000000000000000e+00 0.0000000000000000e+00  9.6040000000000000e-02 0.0000000000000000e+00 0.0000000000000000e+00  1.0000000000000001e-01 0.0000000000000000e+00 0.0000000000000000e+00  0.0000000000000000e+00 0.0000000000000000e+00 0.0000000000000000e+00  1.8585044059298424e-03 1.6564119182811128e-03 0.0000000000000000e+00  2.4178908279615806e-03 1.6709941458205187e-03 0.0000000000000000e+00  2.9553342616887297e-03 1.6385904545117276e-03 0.0000000000000000e+00  3.5105272959031607e-03 1.5796908142989604e-03 0.0000000000000000e+00  4.1013589707877040e-03 1.5037184522876375e-03 0.0000000000000000e+00  4.7364887667188686e-03 1.4159566661943572e-03 0.0000000000000000e+00  5.4207790401828559e-03 1.3199671018598574e-03 0.0000000000000000e+00  6.1578147799742512e-03 1.2184927641186556e-03 0.0000000000000000e+00  6.9509947390437535e-03 1.1137783556578473e-03 0.0000000000000000e+00  7.8038543229239981e-03 1.0076656500110969e-03 0.0000000000000000e+00  8.7199817885749951e-03 9.0161534001595585e-04 0.0000000000000000e+00  9.7027518788910267e-03 7.9671871072809018e-04 0.0000000000000000e+00  1.0755018991620966e-02 6.9372182905031137e-04 0.0000000000000000e+00  1.1878856026645583e-02 5.9306695128462524e-04 0.0000000000000000e+00  1.3075386921612173e-02 4.9494888602150740e-04 0.0000000000000000e+00  1.4344735887891407e-02 3.9938156559792681e-04 0.0000000000000000e+00  1.5686099490105441e-02 3.0626878540193707e-04 0.0000000000000000e+00  1.7097934242664009e-02 2.1547212712442085e-04 0.0000000000000000e+00  1.8578239331838772e-02 1.2686908376000232e-04 0.0000000000000000e+00  2.0124901113800220e-02 4.0396126618839062e-05 0.0000000000000000e+00  2.1736055497014406e-02 -4.3925198669162553e-05 0.0000000000000000e+00  2.3410419829644091e-02 -1.2597733499713262e-04 0.0000000000000000e+00  2.5147550351582976e-02 -2.0554670120560720e-04 0.0000000000000000e+00  2.6947994784015619e-02 -2.8233022489994845e-04 0.0000000000000000e+00  2.8813328958385089e-02 -3.5594584520330251e-04 0.0000000000000000e+00  3.0746086012528023e-02 -4.2594693873139044e-04 0.0000000000000000e+00  3.2749601195607304e-02 -4.9184267776137451e-04 0.0000000000000000e+00  3.4827801603667892e-02 -5.5312734141108879e-04 0.0000000000000000e+00  3.6984968194804776e-02 -6.0932156323437420e-04 0.0000000000000000e+00  3.9225489632258748e-02 -6.6002753556768275e-04 0.0000000000000000e+00  4.1553617417954200e-02 -7.0499820401590256e-04 0.0000000000000000e+00  4.3973222978395225e-02 -7.4421712214987521e-04 0.0000000000000000e+00  4.6487552928021550e-02 -7.7798057394795844e-04 0.0000000000000000e+00  4.9098980969609511e-02 -8.0696703781948746e-04 0.0000000000000000e+00  5.1808764683219426e-02 -8.3227246478116636e-04 0.0000000000000000e+00  5.4616830936352230e-02 -8.5538614433162356e-04 0.0000000000000000e+00  5.7521628738316413e-02 -8.7808519519600456e-04 0.0000000000000000e+00  6.0520092815689090e-02 -9.0223913199383090e-04 0.0000000000000000e+00  6.3607743999154268e-02 -9.2953863025165874e-04 0.0000000000000000e+00  6.6778908603867426e-02 -9.6118703397003648e-04 0.0000000000000000e+00  7.0026975115012713e-02 -9.9760626932461974e-04 0.0000000000000000e+00  7.3344539745528181e-02 -1.0381977435411809e-03 0.0000000000000000e+00  7.6723237656324772e-02 -1.0811571469104605e-03 0.0000000000000000e+00  8.0153006684691358e-02 -1.1232686856006630e-03 0.0000000000000000e+00  8.3620435422700215e-02 -1.1594842290294791e-03 0.0000000000000000e+00  8.7105582935913070e-02 -1.1818382181052578e-03 0.0000000000000000e+00  9.0575918685510390e-02 -1.1764735345128131e-03 0.0000000000000000e+00  9.3973921289011358e-02 -1.1142809367076202e-03 0.0000000000000000e+00  9.7188496190794907e-02 -9.0944263845074583e-04 0.0000000000000000e+00  1.0000000000000001e-01 0.0000000000000000e+00 0.0000000000000000e+00  0.0000000000000000e+00 0.0000000000000000e+00 0.0000000000000000e+00  2.0192563177194090e-03 1.9067683131390185e-03 0.0000000000000000e+00  3.8051871516143233e-03 2.9403982067248732e-03 0.0000000000000000e+00  4.7670758087302069e-03 2.9669935067359750e-03 0.0000000000000000e+00  5.6607517952038146e-03 2.9061668928361799e-03 0.0000000000000000e+00  6.5316314106721599e-03 2.7944032672971870e-03 0.0000000000000000e+00  7.4020019278122238e-03 2.6501222103811092e-03 0.0000000000000000e+00  8.2843428772715524e-03 2.4840310192749001e-03 0.0000000000000000e+00  9.1873024015184605e-03 2.3031840865276160e-03 0.0000000000000000e+00  1.0118377762795751e-02 2.1127046936023331e-03 0.0000000000000000e+00  1.1084911504699967e-02 1.9165441629404151e-03 0.0000000000000000e+00  1.2094201981550957e-02 1.7178286306693677e-03 0.0000000000000000e+00  1.3153186363310915e-02 1.5190297395401369e-03 0.0000000000000000e+00  1.4267974156801514e-02 1.3220631668710051e-03 0.0000000000000000e+00  1.5443398924390939e-02 1.1283607253338502e-03 0.0000000000000000e+00  1.6682686262158845e-02 9.3893596109331345e-04 0.0000000000000000e+00  1.7987292920718344e-02 7.5445098853165024e-04 0.0000000000000000e+00  1.9356943598746530e-02 5.7528544513124245e-04 0.0000000000000000e+00  2.0789868675808582e-02 4.0160430832420418e-04 0.0000000000000000e+00  2.2283221986386999e-02 2.3342003140569190e-04 0.0000000000000000e+00  2.3833631934135315e-02 7.0646421264884698e-05 0.0000000000000000e+00  2.5437816167169829e-02 -8.6854242743212933e-05 0.0000000000000000e+00  2.7093176820126606e-02 -2.3922598840494209e-04 0.0000000000000000e+00  2.8798295978624402e-02 -3.8657113367917374e-04 0.0000000000000000e+00  3.0553270682319549e-02 -5.2889906139385169e-04 0.0000000000000000e+00  3.2359858340031376e-02 -6.6607753503111105e-04 0.0000000000000000e+00  3.4221437408109283e-02 -7.9779694263842134e-04 0.0000000000000000e+00  3.6142814874863434e-02 -9.2355882574486571e-04 0.0000000000000000e+00  3.8129925470347104e-02 -1.0426975382417307e-03 0.0000000000000000e+00  4.0189466855682102e-02 -1.1544395637793602e-03 0.0000000000000000e+00  4.2328503964024856e-02 -1.2580004440985951e-03 0.0000000000000000e+00  4.4554059897505841e-02 -1.3527148102882385e-03 0.0000000000000000e+00  4.6872696206967018e-02 -1.4381899019681366e-03 0.0000000000000000e+00  4.9290077049952842e-02 -1.5144660917920988e-03 0.0000000000000000e+00  5.1810513514572040e-02 -1.5821589185253870e-03 0.0000000000000000e+00  5.4436498285218154e-02 -1.6425473792761277e-03 0.0000000000000000e+00  5.7168265082873128e-02 -1.6975666196585323e-03 0.0000000000000000e+00  6.0003434109582074e-02 -1.7496655861001405e-03 0.0000000000000000e+00  6.2936819299879293e-02 -1.8015070820458006e-03 0.0000000000000000e+00  6.5960457671014966e-02 -1.8555193584145705e-03 0.0000000000000000e+00  6.9063864183027693e-02 -1.9133456997386447e-03 0.0000000000000000e+00  7.2234423633015826e-02 -1.9752625001643372e-03 0.0000000000000000e+00  7.5457730914253909e-02 -2.0396248403543038e-03 0.0000000000000000e+00  7.8717616196227372e-02 -2.1023351470383887e-03 0.0000000000000000e+00  8.1995557895649787e-02 -2.1562039270974142e-03 0.0000000000000000e+00  8.5269169657940833e-02 -2.1898478199979393e-03 0.0000000000000000e+00  8.8509377074365209e-02 -2.1852995370867643e-03 0.0000000000000000e+00  9.1675662359035889e-02 -2.1121880022071395e-03 0.0000000000000000e+00  9.4708264561098321e-02 -1.9114559216671329e-03 0.0000000000000000e+00  9.7516694531849996e-02 -1.4351155179003750e-03 0.0000000000000000e+00  1.0000000000000001e-01 0.0000000000000000e+00 0.0000000000000000e+00  0.0000000000000000e+00 0.0000000000000000e+00 0.0000000000000000e+00  2.1307006287779617e-03 2.0235098996933001e-03 0.0000000000000000e+00  4.1508033075793160e-03 3.2838763577232575e-03 0.0000000000000000e+00  5.9572102672850232e-03 3.9396248214346903e-03 0.0000000000000000e+00  7.2274656653634152e-03 3.9474914762691882e-03 0.0000000000000000e+00  8.4065669069545088e-03 3.8483278419916369e-03 0.0000000000000000e+00  9.5348249631165387e-03 3.6842351902546143e-03 0.0000000000000000e+00  1.0634551620228090e-02 3.4779236388930001e-03 0.0000000000000000e+00  1.1720631295378944e-02 3.2430774882366517e-03 0.0000000000000000e+00  1.2805216458474310e-02 2.9887896416375859e-03 0.0000000000000000e+00  1.3899639089249819e-02 2.7216225993093820e-03 0.0000000000000000e+00  1.5014903089103944e-02 2.4466214237773699e-03 0.0000000000000000e+00  1.6161474381092562e-02 2.1678320082996849e-03 0.0000000000000000e+00  1.7348778065841234e-02 1.8885731569127670e-03 0.0000000000000000e+00  1.8584642507286434e-02 1.6115812375843089e-03 0.0000000000000000e+00  1.9874832917159319e-02 1.3390879352598673e-03 0.0000000000000000e+00  2.1222762014125415e-02 1.0728635002995339e-03 0.0000000000000000e+00  2.2629432007907086e-02 8.1424281191168108e-04 0.0000000000000000e+00  2.4093634501055686e-02 5.6414347440025706e-04 0.0000000000000000e+00  2.5612402927972826e-02 3.2308255685053902e-04 0.0000000000000000e+00  2.7181673914529178e-02 9.1200462159193572e-05 0.0000000000000000e+00  2.8797075716603025e-02 -1.3169620077973634e-04 0.0000000000000000e+00  3.0454735106712382e-02 -3.4606068777332818e-04 0.0000000000000000e+00  3.2151989338187449e-02 -5.5249569455321438e-04 0.0000000000000000e+00  3.3887910761443416e-02 -7.5161364212673063e-04 0.0000000000000000e+00  3.5663592203095840e-02 -9.4388817813150037e-04 0.0000000000000000e+00  3.7482188037371141e-02 -1.1295249096472673e-03 0.0000000000000000e+00  3.9348744653415826e-02 -1.3083779538707780e-03 0.0000000000000000e+00  4.1269875403813522e-02 -1.4799302223917742e-03 0.0000000000000000e+00  4.3253337330650225e-02 -1.6433439361829983e-03 0.0000000000000000e+00  4.5307554517642380e-02 -1.7975776498365065e-03 0.0000000000000000e+00  4.7441113364324536e-02 -1.9415584248386937e-03 0.0000000000000000e+00  4.9662236120691719e-02 -2.0743916446850186e-03 0.0000000000000000e+00  5.1978227075652458e-02 -2.1955841879148699e-03 0.0000000000000000e+00  5.4394885644634225e-02 -2.3052478326922709e-03 0.0000000000000000e+00  5.6915894910601124e-02 -2.4042395405703301e-03 0.0000000000000000e+00  5.9542221821596887e-02 -2.4941872956117236e-03 0.0000000000000000e+00  6.2271598704924339e-02 -2.5773507166052647e-03 0.0000000000000000e+00  6.5098179517994362e-02 -2.6562811933229153e-03 0.0000000000000000e+00  6.8012457844413815e-02 -2.7332787617453278e-03 0.0000000000000000e+00  7.1001481379157030e-02 -2.8096843910944691e-03 0.0000000000000000e+00  7.4049301900235773e-02 -2.8850772025141888e-03 0.0000000000000000e+00  7.7137487780949504e-02 -2.9564402436545057e-03 0.0000000000000000e+00  8.0245440707063950e-02 -3.0172923217707997e-03 0.0000000000000000e+00  8.3350233482474154e-02 -3.0566372372815950e-03 0.0000000000000000e+00  8.6425725149453875e-02 -3.0573120938026223e-03 0.0000000000000000e+00  8.9440789009500046e-02 -2.9927599826594540e-03 0.0000000000000000e+00  9.2356610765230912e-02 -2.8197954249015297e-03 0.0000000000000000e+00  9.5123451286052374e-02 -2.4599668787565012e-03 0.0000000000000000e+00  9.7680372158781378e-02 -1.7380292232798654e-03 0.0000000000000000e+00  1.0000000000000001e-01 0.0000000000000000e+00 0.0000000000000000e+00  0.0000000000000000e+00 0.0000000000000000e+00 0.0000000000000000e+00  2.2128931648812836e-03 2.0594604636503784e-03 0.0000000000000000e+00  4.3931298007121250e-03 3.4474108951625449e-03 0.0000000000000000e+00  6.4475077233474157e-03 4.2885529988634184e-03 0.0000000000000000e+00  8.3122315749579040e-03 4.6898052055548232e-03 0.0000000000000000e+00  9.8119171215184393e-03 4.6562347490938299e-03 0.0000000000000000e+00  1.1208026743954604e-02 4.5116621139787540e-03 0.0000000000000000e+00  1.2534335943521270e-02 4.2967668337744545e-03 0.0000000000000000e+00  1.3812694657027736e-02 4.0346808382851589e-03 0.0000000000000000e+00  1.5060207613041944e-02 3.7398437395965195e-03 0.0000000000000000e+00  1.6292230553355755e-02 3.4220896461395803e-03 0.0000000000000000e+00  1.7523355561657673e-02 3.0886884461601765e-03 0.0000000000000000e+00  1.8767407367971119e-02 2.7454140969448483e-03 0.0000000000000000e+00  2.0036992091703624e-02 2.3971101595967564e-03 0.0000000000000000e+00  2.1342900986661962e-02 2.0479769562351548e-03 0.0000000000000000e+00  2.2693547245998157e-02 1.7016963933062046e-03 0.0000000000000000e+00  2.4094551425281024e-02 1.3614591583740695e-03 0.0000000000000000e+00  2.5548558602952156e-02 1.0299332595169811e-03 0.0000000000000000e+00  2.7055344466169733e-02 7.0920094436928503e-04 0.0000000000000000e+00  2.8612232620541755e-02 4.0068847589899660e-04 0.0000000000000000e+00  3.0214796800710046e-02 1.0511644417566085e-04 0.0000000000000000e+00  3.1857766560989619e-02 -1.7749866847672165e-04 0.0000000000000000e+00  3.3536009717703416e-02 -4.4776545068411186e-04 0.0000000000000000e+00  3.5245446542712375e-02 -7.0675122037918987e-04 0.0000000000000000e+00  3.6983768029441505e-02 -9.5574374793946470e-04 0.0000000000000000e+00  3.8750877882920406e-02 -1.1959804502170302e-03 0.0000000000000000e+00  4.0549038002757859e-02 -1.4283966092896007e-03 0.0000000000000000e+00  4.2382750008879880e-02 -1.6534399494659395e-03 0.0000000000000000e+00  4.4258436855854164e-02 -1.8709821538975379e-03 0.0000000000000000e+00  4.6183995254088638e-02 -2.0803370147550989e-03 0.0000000000000000e+00  4.8168276772947313e-02 -2.2803771872698564e-03 0.0000000000000000e+00  5.0220532694660598e-02 -2.4697298426486483e-03 0.0000000000000000e+00  5.2349834521420453e-02 -2.6470245582476755e-03 0.0000000000000000e+00  5.4564466092693900e-02 -2.8111612637354731e-03 0.0000000000000000e+00  5.6871279780894055e-02 -2.9615592284375266e-03 0.0000000000000000e+00  5.9275021042796271e-02 -3.0983394915760996e-03 0.0000000000000000e+00  6.1777652076742982e-02 -3.2223855668570387e-03 0.0000000000000000e+00  6.4377740087116470e-02 -3.3352263852138597e-03 0.0000000000000000e+00  6.7070004738423672e-02 -3.4386978126250767e-03 0.0000000000000000e+00  6.9845123121270683e-02 -3.5343677985023689e-03 0.0000000000000000e+00  7.2689851682826864e-02 -3.6227496673023702e-03 0.0000000000000000e+00  7.5587440904287262e-02 -3.7023611139300047e-03 0.0000000000000000e+00  7.8518212064492013e-02 -3.7686875306041359e-03 0.0000000000000000e+00  8.1460078127174151e-02 -3.8130510348517183e-03 0.0000000000000000e+00  8.4388765279998501e-02 -3.8212459636933031e-03 0.0000000000000000e+00  8.7277551293471672e-02 -3.7715316873129577e-03 0.0000000000000000e+00  9.0096489475092467e-02 -3.6310239752289997e-03 0.0000000000000000e+00  9.2811388839333847e-02 -3.3481600602928113e-03 0.0000000000000000e+00  9.5383647833867782e-02 -2.8345618622152846e-03 0.0000000000000000e+00  9.7775740061570970e-02 -1.9100617237937153e-03 0.0000000000000000e+00  1.0000000000000001e-01 0.0000000000000000e+00 0.0000000000000000e+00  0.0000000000000000e+00 0.0000000000000000e+00 0.0000000000000000e+00  2.2736616994233128e-03 2.0437007107609899e-03 0.0000000000000000e+00  4.5667195237984260e-03 3.4952918368626913e-03 0.0000000000000000e+00  6.7934154463810490e-03 4.4526460925566362e-03 0.0000000000000000e+00  8.8908565390670991e-03 5.0005525922758743e-03 0.0000000000000000e+00  1.0817995472738222e-02 5.2189059924365776e-03 0.0000000000000000e+00  1.2480822780071113e-02 5.1334808896491271e-03 0.0000000000000000e+00  1.4034378354240032e-02 4.9416595480501133e-03 0.0000000000000000e+00  1.5507641785080226e-02 4.6791477221904436e-03 0.0000000000000000e+00  1.6922569470487359e-02 4.3672178776734648e-03 0.0000000000000000e+00  1.8298326089030720e-02 4.0196923340781497e-03 0.0000000000000000e+00  1.9652812124645397e-02 3.6463894663631203e-03 0.0000000000000000e+00  2.1002910630959229e-02 3.2549395750929465e-03 0.0000000000000000e+00  2.2364135591637826e-02 2.8517631313813808e-03 0.0000000000000000e+00  2.3750039492238306e-02 2.4425784702073916e-03 0.0000000000000000e+00  2.5171584003089928e-02 2.0326244166223614e-03 0.0000000000000000e+00  2.6636609785506363e-02 1.6266994643842733e-03 0.0000000000000000e+00  2.8149514145019486e-02 1.2290793520739565e-03 0.0000000000000000e+00  2.9711226753524261e-02 8.4335909126441596e-04 0.0000000000000000e+00  3.1319541654910625e-02 4.7226508895491758e-04 0.0000000000000000e+00  3.2969808537571393e-02 1.1749058179737218e-04 0.0000000000000000e+00  3.4655914150279375e-02 -2.2038722127999449e-04 0.0000000000000000e+00  3.6371416581060141e-02 -5.4185862826402066e-04 0.0000000000000000e+00  3.8110656690370538e-02 -8.4828041217655252e-04 0.0000000000000000e+00  3.9869678900448034e-02 -1.1415432602292627e-03 0.0000000000000000e+00  4.1646845151304172e-02 -1.4236682850406674e-03 0.0000000000000000e+00  4.3443100382641514e-02 -1.6964130454204648e-03 0.0000000000000000e+00  4.5261917975606636e-02 -1.9609