<?xml version="1.0"?>
<VTKFile type="UnstructuredGrid"  version="0.1"  >
<UnstructuredGrid>
<Piece  NumberOfPoints="370" NumberOfCells="1211">
<Points>
<DataArray  type="Float64"  NumberOfComponents="3"  format="ascii">0.2683758495222019 -1.490673620404064 1.475667784107566  -0.2165167111830255 -1.978674965265306 1.059418840454187  0.03296184272064258 -1.996753541853206 1.470035164610787  -0.2308620053190963 -1.551539094294586 1.717794458136412  1.962734657692562 0.3783613699999914 1.846559366820982  1.91926574085063 0.5296409455353088 2.339697577168066  1.745217422811993 0.9572087840349652 2.004132439917261  1.399310647126385 0.4861101870387526 1.965101941806065  1.491481428815471 -0.04246098436356954 1.192857642755402  1.240992448073932 -0.7277991002123511 1.504890969845327  1.451841918673485 -0.4160870690660196 0.8124817833527678  1.957241061154269 -0.4044530916512841 1.130662055155801  -0.9545210890684874 0.2816717575618023 3  -1.438480770485098 -0.07050119218872986 2.438185635059182  -0.9807852804032304 -0.1950903220161286 3  -1.479465319414609 0.08365730523362372 3  0.1466855526147347 -1.464880016853866 2.2297974104337  0.03653064831300958 -1.996402045182105 2.459535282061257  0.4182078247438861 -1.953068608486724 2.399152904188485  0.3606546971297125 -1.571158736162652 2.586357545217903  -0.980070800056786 -1.125754826208231 3  -0.6770621552545111 -1.440335389723069 2.547962905353221  -0.3959824170308197 -0.9167710771106152 3  -0.7190450405593261 -1.327004400341191 3  -0.04369448314686741 -1.9956964690359 2.079055695557334  -0.08831675386205026 -1.592209287680673 2.5786718043508  -0.4597234839101871 -1.940474970960854 2.365577208844509  0.06424814067857221 -1.462513542149503 0.8252938567089958  -0.4857392175468291 -1.371645797971567 0.9777955730243429  1.512588052516405 -0.2740719184538642 1.754192008279186  0.9893257645081893 0.1083773317058151 1.785271323260748  0.9756404903825265 -0.2120504217921436 1.431575385960868  0.9545290653659886 -0.2816454632327976 2.01543266745928  -0.6813513412608918 1.373329703138566 1.700767684044582  -1.111645100464135 1.018766509541888 1.580900689761718  -1.059542960476273 1.69051866591576 1.998542381954114  -1.170945775598536 1.613858275470806 1.514352004916045  0.9025541663092692 0.4225803863622857 0  1.135486067825821 0.947534454009326 0  0.6021968632248157 0.7932041258053155 0  0.850549934291718 1.02575904982513 0.5353204991820871  1.285895848641168 -0.9157810167207565 0.4484794291144768  1.52494138948322 -1.279291314658712 0.6173649490931152  1.669784403879814 -1.098334036361089 0  1.779059765191092 -0.8938942146969459 0.5606628110678626  0.1821743391565473 1.595435930750562 2.5903667231274  -0.1879604925798806 1.981487507310104 2.257437501874302  -0.4179722159358051 1.953140079637284 3  0.04335340489247286 1.995730062311829 3  0.708221843788238 -1.311703949689869 1.769051025256928  0.7911968624075247 -1.83395264362245 1.495263286014477  0.477219149204427 -1.935167718916343 1.889112662052278  0.9827995192597104 0.1746394117049448 2.234570310665951  1.323841507958512 0.4889974985894576 2.488428520580235  0.9025541663092692 0.4225803863622857 3  0.9955658339392071 -0.04502084354218341 3  -1.126481124092755 -0.9473283376278889 2.074233125962432  -1.664006297246322 -1.10914411354164 1.875888952633512  -1.294582432735519 -0.820629184485212 1.551364336100787  -1.312762776967178 -1.497472070268641 1.943469646961802  0.9807852804032303 0.1950903220161286 1.006853791166158  0.8534608015375593 0.5144276117421314 1.633723584493013  1.430264222105482 0.4050405554365119 1.451769552081978  -0.7740713825566979 -0.6255101783274258 3  -0.8836349378529437 -0.457975773256652 2.310914062613334  -1.344567555190213 -0.6983284766763056 2.512258555473228  -1.988366544844581 0.1181164523892848 1.985795232067481  -1.43886208970591 0.5149695080182193 1.569797912004486  -1.36936675165574 0.5445791180649255 2.094601113017113  -1.441353532002964 -0.002342185071706054 1.686018115577875  -1.973204015961851 0.2720641916429689 1.04935599125763  -1.973811255843297 0.2658987816605045 1.52516799132508  -1.873357740944297 0.6809793394824694 1.315280730417338  -1.188860511984403 1.060117160508811 2.563049150981436  -0.6181448518038473 1.361670697378814 2.257069987665449  -0.5260672980891882 0.8472392595660831 2.417582874741109  -1.033679646116655 1.024275855209801 2.145813876738128  -1.514674703827641 0.3918295191835702 2.521219115594658  -1.9147265257177 0.5446047324439067 2.31369071979841  -1.987182279842392 0.1301404967408785 2.419469863729676  -1.961570560806461 0.3901806440322567 3  -1.423509350166563 1.402886612173637 2.399036955962143  -1.245839619965377 1.552394485835316 3  -1.059542960476273 1.69051866591576 2.444231285366565  0.3959736871192822 0.9167757433455479 2.450393920867024  0.3959736871192823 0.9167757433455478 2.007856029557719  0.3505506524007391 1.439119323266543 2.229124975212371  1.014116663803043 1.091301493651112 2.474767832486639  -0.6397769089613947 1.885856361599427 2.410835427716981  -0.1396511336192156 1.472791285825262 3  -0.5135625025850592 1.416926151553228 3  -0.5131581223052614 1.382860631703773 1.129235146161471  -0.02829600397680024 0.9972130868589251 1.611363293353632  0.06779261740588695 1.516765368192542 1.298023978812301  0.2171273278454561 1.452231135633227 0.7206241776988639  0.5838681171949094 1.350343322085466 0  0.570825861405329 1.906772433206812 0  0.79119686240752 1.833952643622452 0.6008470958115142  0.07503473923697349 -0.9926097232320116 3  0.5289722636881395 -0.8456865231038897 3  0.3150958902771757 -1.466099679343499 3  -1.704258405401222 1.033837715886708 2.209211779154401  -1.813533168648966 0.8293990131207396 3  -1.57081860896361 1.223389760977683 3  0.5942163908489371 -1.374481420233743 0  0.7270811635437457 -1.27490888061952 0.5462966671918753  0.9958825989361997 -1.724545838077583 0  0.8720618164091423 -1.226870877129539 0  1.52814208573423 0.1613137918978926 0.5102072734156454  1.931628784137607 0.4888854537001639 0.8268342758254814  1.873050508530103 0.6819921490195341 0  1.779059765191089 0.8938942146969522 0.5856441150032816  -1.513914009740071 -0.2001832623755173 3  -1.973204015961851 0.2720641916429692 0.585554881990308  -1.981971206824973 -0.1830494089890101 0.817455436623969  -1.442538962714197 0.1702583109259658 0.9778387525341716  0.5916715253007025 1.35922078290025 1.616040581602528  1.13378064835715 1.644358907156259 1.504736713985521  1.16929327003969 1.615214451734676 2.02523850809439  0.9802837104947404 1.015623498320987 1.932926185769896  -0.6020906612473962 -0.7932912835157278 0.5300545641521022  -0.8836349378529436 -0.457975773256652 0.6404787520590902  -1.023790947274213 -0.8542189253140726 0.4828357610848663  -0.602090661247396 -0.793291283515728 0.9479788500445958  -0.07495270366908996 0.9926178030302176 2.335678285116733  -0.1633239734712831 1.457514625388545 1.969260541812861  -1.851925440117959 0.7516321667079673 1.81593851648282  0.9314397286268589 1.185469520867052 0  0.9958825989361937 1.724545838077586 0  -1.493079834035256 -0.02565043060049582 0.4708275303802578  -1.940494357883519 -0.4596595737911316 0  -1.873203290925756 -0.6814884929589626 0.7907882208455987  -0.9408192553364747 -0.3268406500285767 1.845715925535895  -1.441806623388049 -0.4387237814713535 2.034006661436112  0.6612847082440421 -1.340114905463987 1.108893916461269  0.3402362675669802 -0.9367557391813275 1.488714204061065  0.5360331878793529 1.383554395144927 3  0.6305366219362482 1.461672021701259 2.573137157518678  0.5013469316464557 1.927848636129754 3  0.9318504505456354 1.758771734451193 3  -1.429512709177072 -0.3562124671024821 1.118349919785871  0.7623538123515461 -1.256718477748746 2.327019461856683  0.3106111190640441 -0.9457424297310684 2.455385688454125  1.926454636254942 -0.5059423333770237 2.481031809468046  1.813305601459702 -0.8298247613866921 2.479328878025894  1.894126711453047 -0.6125132192606522 3  1.339634282624336 -0.7964456803802702 2.547452680787598  -0.7378844931157909 0.6696040306912336 1.328661823726752  -0.9726455044974873 1.137273922375865 1.073924182966422  -0.4172064841849356 0.905426576866573 1.472187054373984  -0.5041753880756408 0.8589407292555569 0.7961323206085094  -0.08925624373007968 -0.9912090272966354 1.19456677684017  -0.4903859489869041 -0.8663113380070018 1.393053778537583  -0.1244862568658107 -0.9877391738626058 1.721971119438714  0.3464861608853855 1.965874091770562 0.9209443044426662  0.4218757816223546 1.951955945932026 1.52996483538921  0.8455820105048553 1.804883176334093 1.110887337947722  0.8599034339052349 -0.5023742943566752 3  1.468057415404991 -0.2920147759474656 3  1.371659700543215 -0.6077316139648379 3  0.08389629142111744 -1.655366426983338 0.4668966795233791  0.791196862407529 -1.833952643622447 0.6178951048582574  -1.133590325026899 -1.644515101476795 3  -0.5709179202917503 -1.906744507448919 1.406703321415089  -0.9967945349396865 0.03254563292889093 0.6355050416165856  -0.9916319741441293 0.08496199232257164 1.271933936467721  -1.98098155916357 -0.1930974703189275 1.399842543598607  -0.5469942367349582 1.360514599575593 0.5403398490353799  -0.9908812524931417 1.727219113446145 0.5764262435794172  -0.9953960999118099 1.724805877223749 1.056530353038198  0.7876799948882367 0.6089280362230858 0.7814979844598379  -1.174791349590177 -0.9094291444928995 0.8802318284181406  -0.8667404926794215 -0.4895830570665023 1.393053778537582  0.8554989589222524 -1.799582456970345 2.209213972832537  0.6403047911642088 -1.885696230283868 3  1.340692296948859 0.6985534342409534 0  1.66978440387981 1.098334036361095 0  1.28393644087122 0.6551747871608027 0.5464156047922772  -1.392669400495818 0.5227178203765839 0.5650798974098937  -1.779307272275358 0.8934311615112988 0  -1.875730638840034 0.6731569434453054 0.8174554366239695  -1.669846618080803 1.098217641777694 0.7844479410434644  0.3464861608853899 -1.965874091770562 0.856433407986938  -0.3468272391397816 -1.965840498494632 0  -0.1161671093212523 -1.988558
[...]
<PointData  Vectors="f_17"> 
<DataArray  type="Float64"  Name="f_17"  NumberOfComponents="3" format="ascii">1.4400892451378572e-05 -8.1705719887834854e-05 -1.6671801277059009e-07  -8.8412689374500640e-06 -7.0313541850417565e-05 6.7327097262274731e-06  5.6998167317649028e-07 -7.0885808502932690e-05 -6.3306036874137548e-07  -1.2237235402395424e-05 -8.0106056806851332e-05 -4.3471727808488901e-06  6.9605242401640042e-05 1.3793763689706851e-05 -5.6785887787565113e-06  6.7926131517999900e-05 2.0066865857370283e-05 -1.4432887897407933e-05  6.2708409683085630e-05 3.4878341882915065e-05 -8.5139558661162798e-06  7.9355702339678821e-05 2.8638213925577257e-05 -7.9684617610919663e-06  8.3428162656201552e-05 -2.0241584647351650e-06 5.6998049965008268e-06  7.5110133520281546e-05 -4.4145084095211268e-05 1.3484660287054640e-07  7.9606956500692747e-05 -2.2015613113730276e-05 1.1357276613086333e-05  7.0196253815552414e-05 -1.3900409514769713e-05 6.2948637236206484e-06  -1.0751798578529756e-04 3.0621171799466258e-05 -2.5714288189179590e-05  -8.6477470430870263e-05 -4.8272010219166789e-06 -1.5748106985229973e-05  -1.1054878782318699e-04 -2.2261793595696339e-05 -2.5076648984298595e-05  -8.4589563115390417e-05 4.6335425732894116e-06 -2.4917254100435607e-05  8.1671608349488289e-06 -8.5080122346107588e-05 -1.3347582705025348e-05  1.0069755070492002e-06 -7.1282549201183391e-05 -1.7850205263004629e-05  1.4287765918600042e-05 -6.9849478473128348e-05 -1.6656922002453404e-05  1.7369998362680496e-05 -7.7964515656187185e-05 -1.9929173370571512e-05  -5.5616975032165701e-05 -6.4360556432089533e-05 -2.6441365730260329e-05  -3.4344177001013254e-05 -7.3662658694377919e-05 -1.8207472955442981e-05  -4.3579090601734839e-05 -1.0464931754714290e-04 -2.6796292336512022e-05  -4.0058261184121241e-05 -7.3433504288219744e-05 -2.6596323113857499e-05  -2.0413149817969355e-06 -7.1085349782519519e-05 -1.1235592592572953e-05  -5.1316402409870471e-06 -8.0607637079087600e-05 -1.9773289475332548e-05  -1.7002229858711418e-05 -6.9671863542644432e-05 -1.6098406969530440e-05  2.9107392009584930e-06 -8.4196342678155469e-05 1.1606238755393262e-05  -2.9562301623043381e-05 -8.0723111228571932e-05 8.2842955144199421e-06  8.0299842503808808e-05 -1.4771889836894249e-05 -4.4211589195541314e-06  1.0964499445692659e-04 1.1605053618140528e-05 -5.2984785666041163e-06  1.1087409791419927e-04 -2.5899910760614099e-05 1.2720732697762796e-06  1.0713555071297595e-04 -3.1192116278233531e-05 -9.8879948951405963e-06  -3.7568531388658109e-05 7.3576193048236781e-05 -2.8767698006222912e-06  -6.2204332265438175e-05 5.6362733498658642e-05 -1.0183062614233312e-06  -3.8585850805065293e-05 6.0501006695965528e-05 -7.6527345121534826e-06  -4.2232732919495688e-05 5.8160843168807261e-05 4.7933061863326450e-07  1.0294782217381964e-04 4.8170985437035041e-05 2.5242297676338453e-05  6.3872967026890043e-05 5.5048745599784467e-05 2.5893287216700148e-05  6.7699804904867316e-05 9.0811273858376320e-05 2.7463509072811129e-05  5.8179962735989209e-05 7.0851544521334547e-05 1.7042011963356027e-05  6.6430137083510639e-05 -4.6492217044291578e-05 1.8021323830639711e-05  5.4415939476371880e-05 -4.5401384974648779e-05 1.5193263400023384e-05  5.9633398158444626e-05 -3.8515568636725875e-05 2.5854371484395352e-05  6.4101323597119751e-05 -3.1509753264813324e-05 1.6159841381137067e-05  9.2734395878076465e-06 8.0724993945871810e-05 -1.8117480112590204e-05  -7.2734359875338627e-06 7.1517678030103186e-05 -1.2549944949800384e-05  -1.5813271877800044e-05 6.9799917238197017e-05 -2.4242867654067350e-05  1.0389926291176198e-06 7.1978893189822920e-05 -2.5233792155726029e-05  3.9564736600933145e-05 -7.4198993074137012e-05 -5.3915806807689234e-06  2.8652976131561468e-05 -6.5058258017249791e-05 -7.1700483997884912e-07  1.7014746248576459e-05 -6.8997841704859068e-05 -7.7258383745408901e-06  1.0908717801606110e-04 2.1205037427470619e-05 -1.2980937773440369e-05  8.1770137142599182e-05 3.0870869563084665e-05 -1.7305261542781333e-05  1.0140511384177404e-04 4.8433755184795674e-05 -2.5741060163848241e-05  1.1224828889215392e-04 -4.8424548878560388e-06 -2.6392099968047340e-05  -6.5775485786731411e-05 -5.5178889384204893e-05 -9.9409096384305634e-06  -6.0079605498502403e-05 -3.9272725043353141e-05 -7.1816725921912955e-06  -7.0282323698110473e-05 -4.3377264183011928e-05 -1.8177332656720919e-06  -4.7639065002987201e-05 -5.3484301445103727e-05 -8.2500868472307947e-06  1.1161035731066242e-04 2.1589748954161936e-05 8.1960304269741345e-06  9.4463531226571623e-05 5.9159891869116565e-05 -2.0776662437511188e-06  8.0396470495269204e-05 2.3501953164190152e-05 4.7837078360137470e-07  -8.8756019349016518e-05 -6.9649748096301049e-05 -2.6386628475687363e-05  -1.0189289701608810e-04 -5.2708970964306676e-05 -1.3610698055667352e-05  -7.4569970207516320e-05 -3.7622702069582822e-05 -1.7705551701363516e-05  -7.1281909106699193e-05 4.1496773692502930e-06 -7.5707678896442273e-06  -7.8479128199069340e-05 2.8784202806993182e-05 4.1815940383612715e-08  -7.8264234756889405e-05 3.2155017014802917e-05 -9.4534855673234565e-06  -8.7160128277727591e-05 3.2291727157593400e-07 -2.7800235787369075e-06  -7.1247002496905288e-05 1.1024237866419344e-05 8.6730715163093826e-06  -7.1566436968545344e-05 9.4649032475919111e-06 4.3415246841803338e-07  -6.7998990276236604e-05 2.4998850064701085e-05 4.5206137082269182e-06  -6.0606282462682396e-05 5.3406052005961898e-05 -1.7246225703626996e-05  -3.5337905186767146e-05 7.7118699883306274e-05 -1.2348958095478887e-05  -5.9106503709006152e-05 9.5497010867534016e-05 -1.5608178709833085e-05  -6.1506501019463280e-05 6.0758059234762172e-05 -1.0604265786036865e-05  -7.9108274397020705e-05 2.0583121677033286e-05 -1.6780444350850794e-05  -6.8529877715633295e-05 1.9946963439276046e-05 -1.3047191787180432e-05  -7.1105943147874569e-05 4.2816099346893074e-06 -1.5290600143622177e-05  -6.9350686123605704e-05 1.3249949064068158e-05 -2.4161233762609741e-05  -5.0728709975516203e-05 4.9717609182743168e-05 -1.4140656559751057e-05  -4.4732534198959270e-05 5.5224196084604498e-05 -2.4503947263654180e-05  -3.8498050621855560e-05 6.0558357919125258e-05 -1.5002905702928210e-05  4.3197435443852024e-05 1.0573547717195770e-04 -1.7170259265233641e-05  4.4652311771206303e-05 1.0478911942417948e-04 -8.3570304462474856e-06  2.0210347077062519e-05 8.2935697312664795e-05 -1.2529696377582845e-05  5.7285447727914149e-05 6.2887362596722582e-05 -1.6846142389124537e-05  -2.3593108242526639e-05 6.7385154816632692e-05 -1.4975202117429728e-05  -7.4408390490514671e-06 8.5034203073166938e-05 -2.4839256605784971e-05  -2.8306512457621517e-05 7.8239839006334494e-05 -2.5533804738842059e-05  -3.0235257998874741e-05 7.9615704143055837e-05 7.3169569672643461e-06  -3.2866870620055630e-06 1.1374451828204176e-04 -1.7906295952006703e-06  2.9777651472017251e-06 8.4131753439374378e-05 4.3498111578972975e-06  1.2129268611816291e-05 8.5788081704213950e-05 1.3782470633055539e-05  3.2974368179660065e-05 7.8708827838600844e-05 2.5968220227541985e-05  1.9435201152910138e-05 6.9650149395458175e-05 2.6310520040093322e-05  2.8367217619473367e-05 6.6959888830237500e-05 1.5607707506438267e-05  8.3173402932426050e-06 -1.1263433819178673e-04 -2.8254369372062224e-05  5.8628128479035918e-05 -9.6467450996247898e-05 -2.6564416706963381e-05  1.6977572546775707e-05 -8.2575218865798113e-05 -2.5642164118035943e-05  -6.0794283252161249e-05 3.7270922432178378e-05 -1.0856492626498224e-05  -6.4330536205665985e-05 2.8823555687250553e-05 -2.3834627588970341e-05  -5.6101675962817713e-05 4.2993759955536990e-05 -2.4592040350890209e-05  3.3031610157057450e-05 -7.5773745902409602e-05 2.4863166902788006e-05  4.1826374068235082e-05 -7.3479139850136252e-05 1.6104311776997059e-05  3.5233329040440930e-05 -6.0606756420781326e-05 2.5837430658062722e-05  4.7662102381927154e-05 -6.6875449318670933e-05 2.5570362135104409e-05  8.1591092976007493e-05 9.7717203260176414e-06 1.7417507057527120e-05  6.8598219266155413e-05 1.8082140545635731e-05 1.1997134373034547e-05  6.5940219755460095e-05 2.5823757301309081e-05 2.5479780114488376e-05  6.2419997668408702e-05 3.2574101535338734e-05 1.6108356966128273e-05  -8.1911280056998800e-05 -1.0955352990911614e-05 -2.5570207168675563e-05  -7.2073046122230004e-05 1.0916800562236196e-05 1.6882099728461636e-05  -7.2407419727010770e-05 -5.9193258552053044e-06 1.2092919534162193e-05  -8.6173599496682145e-05 1.0272174197267626e-05 9.9466574024764834e-06  3.3551484957797225e-05 7.7962450527066022e-05 -1.6335297102227967e-06  4.1111091299629823e-05 5.9542166629285883e-05 3.2514881232520083e-07  4.1813135509335680e-05 5.8476760232739541e-05 -8.7333647990385967e-06  6.1002143776610006e-05 6.4458681351870512e-05 -7.1537667767437447e-06  -6.6345082483553180e-05 -8.8555687664947699e-05 1.7552276808508231e-05  -1.0179414632333499e-04 -4.9371784122562005e-05 1.5993398676189952e-05  -7.0057828146648395e-05 -5.7484043069468768e-05 1.7876886587964502e-05  -6.8144805408080632e-05 -8.7524059373118385e-05 1.0659112885068198e-05  -7.7975504052349526e-06 1.1319672302901710e-04 -1.4172468448905947e-05  -9.8069933713329848e-06 8.5277273004269829e-05 -7.5574784888663647e-06  -6.5964321705619210e-05 2.7500696146127788e-05 -4.0176873935266275e-06  5.0686143048897403e-05 6.6627710451391969e-05 2.6370779518573717e-05  3.5764135388590718e-05 6.2767966460556567e-05 2.6512593967081238e-05  -8.5095308586195521e-05 5.3159848880791907e-08 1.8725603962540229e-05  -7.0405653704241265e-05 -1.4721894715242538e-05 2.5791737735586360e-05  -6.8372140172020857e-05 -2.3669676380404688e-05 1.2277548744965652e-05  -1.0621970349086817e-04 -3.8654468973838550e-05 -4.3793966578869011e-06  -8.0211981270768005e-05 -2.5233315588254121e-05 -9.5252889470905681e-06  3.7188560894705366e-05 -7.4824710394197895e-05 6.0946804802034512e-06  3.9273739730228503e-05 -1.0556630018713203e-04 -6.1441237742559234e-07  3.0481409867880726e-05 7.9685488523117555e-05 -2.4690792116898864e-05  3.1372357967832836e-05 7.4728552194737926e-05 -1.8559313781399884e-05  1.8033223145405391e-05 6.9919187010831008e-05 -2.5089273499137488e-05  3.3834072160452047e-05 6.3990188147574901e-05 -2.5410972010701260e-05  -8.3840460662256263e-05 -1.9721408221886697e-05 6.6577010254126563e-06  4.4014641992637758e-05 -7.3127931488946313e-05 -1.4753134091429608e-05  3.4118479080233513e-05 -1.0779086999790742e-04 -1.6623925365232804e-05  6.8804177845955181e-05 -1.7769462577159996e-05 -1.6727546493910385e-05  6.4182317423047838e-05 -2.9370312814389905e-05 -1.6963336572782828e-05  6.7214246268031667e-05 -2.2061228410175337e-05 -2.5828212006968459e-05  6.9787872821672835e-05 -4.1789567557272050e-05 -1.8479906157569442e-05  -8.5143356546625918e-05 7.5033077604318613e-05 4.0340597955834634e-06  -5.5003164638031075e-05 6.4469388620099800e-05 8.5175164558689493e-06  -4.6921802530622503e-05 1.0353860819198737e-04 1.1072107696145541e-06  -5.6842308262275917e-05 9.7282708242136184e-05 1.3670908490275945e-05  -1.2827337015157923e-05 -1.1188928192927193e-04 5.6646726318319046e-06  -5.6654904237715653e-05 -9.6003342266725360e-05 1.9178834956609922e-06  -1.4982366830575467e-05 -1.1153420874966068e-04 -4.6873731110276266e-06  1.1666282217793614e-05 7.1385131026012612e-05 1.0544130896260683e-05  1.4761002488455791e-05 7.1491094212328230e-05 1.4508262320577047e-07  3.0564857453299296e-05 6.5647341044215780e-05 7.2688241303561569e-06  9.6701262580644980e-05 -5.8515448391420800e-05 -2.7050392947308264e-05  8.1961275211537882e-05 -1.6622685005388812e-05 -2.6356474775471728e-05  7.5847663870376946e-05 -3.4030965968693385e-05 -2.6227678730179290e-05  3.3602968494999753e-06 -7.7475166205132596e-05 1.7187558489376483e-05  2.7062334894575778e-05 -6.4209721005709002e-05 1.4184092543797815e-05  -4.0585358695179568e-05 -5.9353590840440693e-05 -2.6462983158508986e-05  -2.0705875940418861e-05 -6.7631353074361852e-05 7.0655378152511446e-07  -1.1448364638933928e-04 3.9429332409550054e-06 1.5474865308214643e-05  -1.1285698202749241e-04 1.0965123958679405e-05 4.4379416927264726e-06  -7.2221097947683301e-05 -6.1343754950256082e-06 2.5487845373963798e-06  -3.2831345461368914e-05 7.9815563333383773e-05 1.7681653611869742e-05  -3.6406444185627417e-05 6.2560888903073446e-05 1.7136532512936741e-05  -3.6247093230417866e-05 6.2424562350700468e-05 8.4575343661027843e-06  8.8140741085486509e-05 6.9030374093167571e-05 1.2993203538518250e-05  -6.7972912801765291e-05 -5.0256990931088664e-05 1.0609402144514440e-05  -9.9975020377523973e-05 -5.5188823998245288e-05 1.6087316752666337e-06  3.0549817855822191e-05 -6.4454704996160384e-05 -1.3163042655642327e-05  2.3187968188011409e-05 -6.8122352232335498e-05 -2.7146880265242148e-05  7.2637584580014525e-05 3.9484968985233025e-05 2.6440349657215644e-05  5.9169276356004502e-05 3.9521904032470503e-05 2.6286434825317204e-05  7.6609876674736316e-05 3.9303621918901902e-05 1.6015452431703404e-05  -8.0052667381307863e-05 3.0790266052926585e-05 1.7251454483088453e-05  -6.4851601223855457e-05 3.3449681505041356e-05 2.7204710560717791e-05  -6.8162128535380543e-05 2.5616529024758990e-05 1.2506968178176928e-05  -6.0234402292067049e-05 4.0273908452937922e-05 1.3277554657962246e-05  1.1918884353736663e-05 -6.9241970450136276e-05 1.0740364695141349e-05  -1.3202111369261361e-05 -6.8555146955373065e-05 2.4565788631858008e-05  -4.5974906652567001e-06 -7.0199453203029802e-05 1.5145502209387698e-05  -2.9772734409118360e-05 -7.4390977993282073e-05 1.7114710671774297e-05  -8.1420300675956060e-05 7.7295376946565525e-05 -2.6946279147140989e-05  -7.1412887336663253e-05 4.3210514932561293e-05 -2.5341719965849610e-05  -6.0518541138132871e-05 5.6203045842136189e-05 -2.5184164823457561e-05  -7.3833552857429971e-05 4.2032230015362036e-05 6.9175028977405085e-06  -5.1091308910758433e-05 5.0828960303460885e-05 7.8031352967858611e-06  -9.8144613072450432e-05 5.7626403607558250e-05 -1.5956893474053834e-05  6.7234505137365476e-05 9.0479142015182924e-05 -2.6457426046594025e-05  4.9535867857026721e-05 6.7829890951390373e-05 -2.5407380427428850e-05  6.2664802062231215e-05 5.6926852915207662e-05 -2.5097743554123478e-05  1.8044123802418663e-05 1.1425318521685531e-04 2.6396586313271181e-05  -6.1629324880708628e-06 8.6229861493215189e-05 2.6883518202821755e-05  -3.6822882557833687e-05 1.0770257221084081e-04 2.7493000658694175e-05  -8.4187359925986173e-06 1.1329759285183475e-04 1.6484154899132688e-05  -7.4414939382626356e-05 -3.3369650885016537e-05 1.7930343544452417e-05  -5.9708994706976772e-05 -3.8503942260444970e-05 1.5541222961577595e-05  -8.2892029940926967e-05 -1.2953814126605384e-05 2.6429209449140181e-05  5.6361970276712367e-05 9.8759466787012683e-05 4.4985301525138512e-06  4.2389800231379381e-05 7.4053411224483614e-05 1.0370625682978378e-05  6.2263024571148633e-05 3.4399292970602111e-05 -1.6125689456605311e-05  3.4833092227951584e-05 -1.0443248371419921e-04 1.3153863604720817e-05  -9.7872746456805249e-05 5.6497934570231721e-05 1.3946456605259592e-05  -3.7492677820172948e-05 -6.0677666544822106e-05 -2.1269086733660478e-06  -5.1186464603388877e-05 -6.5101425584404305e-05 2.9653315911509876e-06  -4.9564471104417048e-05 5.2329717794380351e-05 1.6608858981814742e-05  8.0296758104904731e-05 2.3776334948173639e-05 -2.5455197868574599e-05  -4.5157342956886612e-05 -1.0239986810795528e-04 2.6371592181988127e-05  7.9238460190122756e-06 -1.1185408131046306e-04 2.5396980151706616e-05  -1.8564328226727014e-05 -1.0881224374456003e-04 1.5739411364983194e-05  -1.0164027407823413e-05 -7.1261304962313344e-05 -2.6707977804671376e-05  -2.6316178332710652e-05 -6.6777121194618022e-05 -2.6852107935953154e-05  2.1388376071687303e-05 6.8977583590078295e-05 -1.6555125661916463e-05  -3.3624539398934130e-05 -6.3080984560434780e-05 -1.4618086618209363e-05  2.5658568874671877e-05 6.7236052250930028e-05 -1.0746840075446419e-05  9.5975148105029582e-06 7.1397449964910785e-05 -1.5239998385888010e-05  -1.1222035043464099e-04 9.7061004684804402e-06 -9.9722367432469685e-06  7.0407015082567118e-05 1.1296535932578425e-05 -2.5822599033431079e-05  8.4770910669326532e-05 -5.9258353056608548e-06 -1.3525150787389338e-05  -4.1019748164205591e-05 -7.0661363387419188e-05 2.5324873682725396e-05  -2.4801923988756183e-05 -7.8397130633589586e-05 2.4884177268750163e-05  -3.0685680945220182e-05 6.4662121407716290e-05 -2.5539037013212645e-05  8.6435427221829794e-05 7.2060225559440589e-05 -1.4806466725937841e-05  -4.9652536553944604e-05 -5.0762390788117828e-05 7.9193321954480835e-06  -7.9663422564393374e-05 -2.5813445499879525e-05 -2.5407238416805608e-05  -7.0541230651712100e-05 -1.0646225354948060e-05 -1.5016808153707171e-05  6.4492902322939151e-05 -3.0150567789952571e-05 -1.0060839575338046e-05  5.5765580395756086e-05 -4.3751552369900676e-05 -1.5730416268307930e-05  7.1133087564513527e-05 1.2716065306142454e-06 1.2700125333353741e-05  7.0944611431384747e-05 8.4740313087819429e-07 8.6393918287159534e-09  -7.1247314077327043e-05 -2.6252452755954662e-06 -2.5593072161640152e-05  -6.9220494988923349e-05 -8.8235561794937879e-05 -7.0889744363188946e-06  -3.6214934028599150e-05 -7.8952082127222949e-05 -1.1312028466361012e-05  5.2833240041743559e-06 7.2498565654548981e-05 -6.9357014107812534e-06  6.2627261472670749e-06 -7.1827166026618074e-05 -2.6699553884578746e-05  -2.3488600536074119e-05 8.1162398089333301e-05 2.6931497246541458e-05  -4.2876346486175567e-05 7.4193203509724859e-05 2.6254545120539724e-05  -3.3035008100022010e-06 7.2484388831882971e-05 1.5668537769821522e-05  -5.9784251617387294e-05 9.6372274493301290e-05 -6.2487873065856188e-06  -7.1269197281259632e-05 4.7558818832899158e-05 2.6440573133943314e-05  -5.5158693353713585e-05 4.7305034161704168e-05 2.6608323714742895e-05  -1.0281919874026779e-05 7.1779369984217747e-05 7.8969074236088846e-06  -2.1222908047649369e-05 6.8889591128165457e-05 1.5344948485578650e-05  -2.4572878010008859e-05 6.7457579922885336e-05 2.1496599696831493e-06  -8.3272111499518384e-05 7.9202550348999912e-05 2.5521686099734191e-05  8.1814965402123301e-05 -7.5953609294437667e-05 5.2590790174405230e-06  6.7539714293796750e-05 -4.9206614686773659e-05 9.9309158802127045e-06  -6.0377569889003550e-05 3.9248150230910578e-05 1.0142239738269676e-06  -2.4961430443659469e-05 -6.6991510907472209e-05 -7.8132089832031787e-06  2.0187842706700223e-05 -6.6776661718503369e-05 2.4351760515763512e-05  7.1931859803963107e-05 4.8893316216549183e-05 5.4311000387989773e-06  7.1210570543806269e-05 -4.6861691918180402e-05 -1.0095451500626375e-05  -8.1384425992892713e-05 1.9866059530271459e-05 -2.5633473278139017e-05  1.1027836398702495e-04 -3.2076341506353452e-05 1.4701004206978521e-05  3.3867768759128825e-06 7.2490792442561812e-05 2.6818605815058827e-05  6.9194658417343191e-05 -1.3334934192554253e-05 -1.1417419154293721e-05  6.5405248887501932e-05 -2.8269859421786815e-05 -1.9044168703910498e-06  5.9432525983099452e-05 -9.3463208988333200e-05 2.6196267762880473e-05  4.1733981566581516e-05 -5.6183787378574830e-05 1.6997558981459349e-05  4.1624508658086408e-05 -5.7045501244860004e-05 1.0319476125772877e-05  7.0281471122862836e-05 -5.2444381122171127e-06 -2.5931658114456722e-05  -4.3356550425671882e-05 -5.5116471442417384e-05 2.4526381134459447e-05  -2.8687713453017641e-05 -6.3541553728872549e-05 2.5019956738907789e-05  7.7771863966378458e-05 -1.7081654045911781e-05 1.9202807122898817e-05  -6.1546802232492781e-05 6.2960084771041959e-05 1.6622183378171065e-05  4.1623212085783781e-05 5.7732262770729616e-05 1.2497808089537040e-05  4.3721562628161241e-05 1.0404803319689866e-04 1.5103839050163813e-05  1.1252620145730620e-04 -5.5407302045783177e-06 2.6254902086455549e-05  8.3493083887885267e-05 -1.3067918141605980e-06 2.5731571748558547e-05  7.9537059380334492e-05 -7.6444264890948886e-05 -4.3268306607331820e-06  -6.4356900268518628e-06 1.1200180149099951e-04 9.4249568202085607e-06  1.0676598026863585e-04 -3.2520155221881518e-05 -1.5867053003537054e-05  6.5505601233000469e-05 2.6721579736610359e-05 -2.6147483874578191e-05  4.8739848482413102e-05 -5.1563370412526566e-05 2.4908712898107168e-05  7.9678854956682671