<?xml version="1.0"?>
<VTKFile type="UnstructuredGrid"  version="0.1"  >
<UnstructuredGrid>
<Piece  NumberOfPoints="370" NumberOfCells="1211">
<Points>
<DataArray  type="Float64"  NumberOfComponents="3"  format="ascii">0.2683758495222019 -1.490673620404064 1.475667784107566  -0.2165167111830255 -1.978674965265306 1.059418840454187  0.03296184272064258 -1.996753541853206 1.470035164610787  -0.2308620053190963 -1.551539094294586 1.717794458136412  1.962734657692562 0.3783613699999914 1.846559366820982  1.91926574085063 0.5296409455353088 2.339697577168066  1.745217422811993 0.9572087840349652 2.004132439917261  1.399310647126385 0.4861101870387526 1.965101941806065  1.491481428815471 -0.04246098436356954 1.192857642755402  1.240992448073932 -0.7277991002123511 1.504890969845327  1.451841918673485 -0.4160870690660196 0.8124817833527678  1.957241061154269 -0.4044530916512841 1.130662055155801  -0.9545210890684874 0.2816717575618023 3  -1.438480770485098 -0.07050119218872986 2.438185635059182  -0.9807852804032304 -0.1950903220161286 3  -1.479465319414609 0.08365730523362372 3  0.1466855526147347 -1.464880016853866 2.2297974104337  0.03653064831300958 -1.996402045182105 2.459535282061257  0.4182078247438861 -1.953068608486724 2.399152904188485  0.3606546971297125 -1.571158736162652 2.586357545217903  -0.980070800056786 -1.125754826208231 3  -0.6770621552545111 -1.440335389723069 2.547962905353221  -0.3959824170308197 -0.9167710771106152 3  -0.7190450405593261 -1.327004400341191 3  -0.04369448314686741 -1.9956964690359 2.079055695557334  -0.08831675386205026 -1.592209287680673 2.5786718043508  -0.4597234839101871 -1.940474970960854 2.365577208844509  0.06424814067857221 -1.462513542149503 0.8252938567089958  -0.4857392175468291 -1.371645797971567 0.9777955730243429  1.512588052516405 -0.2740719184538642 1.754192008279186  0.9893257645081893 0.1083773317058151 1.785271323260748  0.9756404903825265 -0.2120504217921436 1.431575385960868  0.9545290653659886 -0.2816454632327976 2.01543266745928  -0.6813513412608918 1.373329703138566 1.700767684044582  -1.111645100464135 1.018766509541888 1.580900689761718  -1.059542960476273 1.69051866591576 1.998542381954114  -1.170945775598536 1.613858275470806 1.514352004916045  0.9025541663092692 0.4225803863622857 0  1.135486067825821 0.947534454009326 0  0.6021968632248157 0.7932041258053155 0  0.850549934291718 1.02575904982513 0.5353204991820871  1.285895848641168 -0.9157810167207565 0.4484794291144768  1.52494138948322 -1.279291314658712 0.6173649490931152  1.669784403879814 -1.098334036361089 0  1.779059765191092 -0.8938942146969459 0.5606628110678626  0.1821743391565473 1.595435930750562 2.5903667231274  -0.1879604925798806 1.981487507310104 2.257437501874302  -0.4179722159358051 1.953140079637284 3  0.04335340489247286 1.995730062311829 3  0.708221843788238 -1.311703949689869 1.769051025256928  0.7911968624075247 -1.83395264362245 1.495263286014477  0.477219149204427 -1.935167718916343 1.889112662052278  0.9827995192597104 0.1746394117049448 2.234570310665951  1.323841507958512 0.4889974985894576 2.488428520580235  0.9025541663092692 0.4225803863622857 3  0.9955658339392071 -0.04502084354218341 3  -1.126481124092755 -0.9473283376278889 2.074233125962432  -1.664006297246322 -1.10914411354164 1.875888952633512  -1.294582432735519 -0.820629184485212 1.551364336100787  -1.312762776967178 -1.497472070268641 1.943469646961802  0.9807852804032303 0.1950903220161286 1.006853791166158  0.8534608015375593 0.5144276117421314 1.633723584493013  1.430264222105482 0.4050405554365119 1.451769552081978  -0.7740713825566979 -0.6255101783274258 3  -0.8836349378529437 -0.457975773256652 2.310914062613334  -1.344567555190213 -0.6983284766763056 2.512258555473228  -1.988366544844581 0.1181164523892848 1.985795232067481  -1.43886208970591 0.5149695080182193 1.569797912004486  -1.36936675165574 0.5445791180649255 2.094601113017113  -1.441353532002964 -0.002342185071706054 1.686018115577875  -1.973204015961851 0.2720641916429689 1.04935599125763  -1.973811255843297 0.2658987816605045 1.52516799132508  -1.873357740944297 0.6809793394824694 1.315280730417338  -1.188860511984403 1.060117160508811 2.563049150981436  -0.6181448518038473 1.361670697378814 2.257069987665449  -0.5260672980891882 0.8472392595660831 2.417582874741109  -1.033679646116655 1.024275855209801 2.145813876738128  -1.514674703827641 0.3918295191835702 2.521219115594658  -1.9147265257177 0.5446047324439067 2.31369071979841  -1.987182279842392 0.1301404967408785 2.419469863729676  -1.961570560806461 0.3901806440322567 3  -1.423509350166563 1.402886612173637 2.399036955962143  -1.245839619965377 1.552394485835316 3  -1.059542960476273 1.69051866591576 2.444231285366565  0.3959736871192822 0.9167757433455479 2.450393920867024  0.3959736871192823 0.9167757433455478 2.007856029557719  0.3505506524007391 1.439119323266543 2.229124975212371  1.014116663803043 1.091301493651112 2.474767832486639  -0.6397769089613947 1.885856361599427 2.410835427716981  -0.1396511336192156 1.472791285825262 3  -0.5135625025850592 1.416926151553228 3  -0.5131581223052614 1.382860631703773 1.129235146161471  -0.02829600397680024 0.9972130868589251 1.611363293353632  0.06779261740588695 1.516765368192542 1.298023978812301  0.2171273278454561 1.452231135633227 0.7206241776988639  0.5838681171949094 1.350343322085466 0  0.570825861405329 1.906772433206812 0  0.79119686240752 1.833952643622452 0.6008470958115142  0.07503473923697349 -0.9926097232320116 3  0.5289722636881395 -0.8456865231038897 3  0.3150958902771757 -1.466099679343499 3  -1.704258405401222 1.033837715886708 2.209211779154401  -1.813533168648966 0.8293990131207396 3  -1.57081860896361 1.223389760977683 3  0.5942163908489371 -1.374481420233743 0  0.7270811635437457 -1.27490888061952 0.5462966671918753  0.9958825989361997 -1.724545838077583 0  0.8720618164091423 -1.226870877129539 0  1.52814208573423 0.1613137918978926 0.5102072734156454  1.931628784137607 0.4888854537001639 0.8268342758254814  1.873050508530103 0.6819921490195341 0  1.779059765191089 0.8938942146969522 0.5856441150032816  -1.513914009740071 -0.2001832623755173 3  -1.973204015961851 0.2720641916429692 0.585554881990308  -1.981971206824973 -0.1830494089890101 0.817455436623969  -1.442538962714197 0.1702583109259658 0.9778387525341716  0.5916715253007025 1.35922078290025 1.616040581602528  1.13378064835715 1.644358907156259 1.504736713985521  1.16929327003969 1.615214451734676 2.02523850809439  0.9802837104947404 1.015623498320987 1.932926185769896  -0.6020906612473962 -0.7932912835157278 0.5300545641521022  -0.8836349378529436 -0.457975773256652 0.6404787520590902  -1.023790947274213 -0.8542189253140726 0.4828357610848663  -0.602090661247396 -0.793291283515728 0.9479788500445958  -0.07495270366908996 0.9926178030302176 2.335678285116733  -0.1633239734712831 1.457514625388545 1.969260541812861  -1.851925440117959 0.7516321667079673 1.81593851648282  0.9314397286268589 1.185469520867052 0  0.9958825989361937 1.724545838077586 0  -1.493079834035256 -0.02565043060049582 0.4708275303802578  -1.940494357883519 -0.4596595737911316 0  -1.873203290925756 -0.6814884929589626 0.7907882208455987  -0.9408192553364747 -0.3268406500285767 1.845715925535895  -1.441806623388049 -0.4387237814713535 2.034006661436112  0.6612847082440421 -1.340114905463987 1.108893916461269  0.3402362675669802 -0.9367557391813275 1.488714204061065  0.5360331878793529 1.383554395144927 3  0.6305366219362482 1.461672021701259 2.573137157518678  0.5013469316464557 1.927848636129754 3  0.9318504505456354 1.758771734451193 3  -1.429512709177072 -0.3562124671024821 1.118349919785871  0.7623538123515461 -1.256718477748746 2.327019461856683  0.3106111190640441 -0.9457424297310684 2.455385688454125  1.926454636254942 -0.5059423333770237 2.481031809468046  1.813305601459702 -0.8298247613866921 2.479328878025894  1.894126711453047 -0.6125132192606522 3  1.339634282624336 -0.7964456803802702 2.547452680787598  -0.7378844931157909 0.6696040306912336 1.328661823726752  -0.9726455044974873 1.137273922375865 1.073924182966422  -0.4172064841849356 0.905426576866573 1.472187054373984  -0.5041753880756408 0.8589407292555569 0.7961323206085094  -0.08925624373007968 -0.9912090272966354 1.19456677684017  -0.4903859489869041 -0.8663113380070018 1.393053778537583  -0.1244862568658107 -0.9877391738626058 1.721971119438714  0.3464861608853855 1.965874091770562 0.9209443044426662  0.4218757816223546 1.951955945932026 1.52996483538921  0.8455820105048553 1.804883176334093 1.110887337947722  0.8599034339052349 -0.5023742943566752 3  1.468057415404991 -0.2920147759474656 3  1.371659700543215 -0.6077316139648379 3  0.08389629142111744 -1.655366426983338 0.4668966795233791  0.791196862407529 -1.833952643622447 0.6178951048582574  -1.133590325026899 -1.644515101476795 3  -0.5709179202917503 -1.906744507448919 1.406703321415089  -0.9967945349396865 0.03254563292889093 0.6355050416165856  -0.9916319741441293 0.08496199232257164 1.271933936467721  -1.98098155916357 -0.1930974703189275 1.399842543598607  -0.5469942367349582 1.360514599575593 0.5403398490353799  -0.9908812524931417 1.727219113446145 0.5764262435794172  -0.9953960999118099 1.724805877223749 1.056530353038198  0.7876799948882367 0.6089280362230858 0.7814979844598379  -1.174791349590177 -0.9094291444928995 0.8802318284181406  -0.8667404926794215 -0.4895830570665023 1.393053778537582  0.8554989589222524 -1.799582456970345 2.209213972832537  0.6403047911642088 -1.885696230283868 3  1.340692296948859 0.6985534342409534 0  1.66978440387981 1.098334036361095 0  1.28393644087122 0.6551747871608027 0.5464156047922772  -1.392669400495818 0.5227178203765839 0.5650798974098937  -1.779307272275358 0.8934311615112988 0  -1.875730638840034 0.6731569434453054 0.8174554366239695  -1.669846618080803 1.098217641777694 0.7844479410434644  0.3464861608853899 -1.965874091770562 0.856433407986938  -0.3468272391397816 -1.965840498494632 0  -0.1161671093212523 -1.988558
[...]
<PointData  Scalars="f_12"> 
<DataArray  type="Float64"  Name="f_12"  format="ascii">6.1823659083542704e-01  9.9999999999999967e-01  9.9999999999999978e-01  6.6802040607895774e-01  9.9999999999999978e-01  9.9999999999999989e-01  9.9999999999999978e-01  5.8431193399146764e-01  5.8989278250713195e-01  5.4527214260282209e-01  6.1138536882639971e-01  9.9999999999999967e-01  4.4408920985006262e-16  5.4572140628225652e-01  4.4408920985006262e-16  5.8420986956786414e-01  5.7545867501627812e-01  9.9999999999999989e-01  9.9999999999999989e-01  6.9973326736542585e-01  5.9403621526000094e-01  6.8639384532724423e-01  4.4408920985006262e-16  6.1002944719175878e-01  9.9999999999999978e-01  6.8870936396693139e-01  9.9999999999999989e-01  5.6369601005345493e-01  5.5807212364680625e-01  6.3678115782988665e-01  3.3306690738754696e-16  3.3306690738754696e-16  4.4408920985006262e-16  6.3531723952101782e-01  6.1060506739593956e-01  9.9999999999999978e-01  9.9999999999999978e-01  0.0000000000000000e+00  5.8051640422361439e-01  0.0000000000000000e+00  4.3394275609042371e-01  6.7367600244976067e-01  9.9999999999999956e-01  9.9999999999999944e-01  9.9999999999999956e-01  6.9846842079079330e-01  9.9999999999999989e-01  1.0000000000000000e+00  1.0000000000000000e+00  5.9380376179368266e-01  9.9999999999999967e-01  9.9999999999999978e-01  4.4408920985006262e-16  5.1610671865706537e-01  4.4408920985006262e-16  4.4408920985006262e-16  5.7701797859375947e-01  9.9999999999999978e-01  6.3649346428432829e-01  9.9999999999999978e-01  2.2204460492503131e-16  3.3306690738754696e-16  5.8934723246081888e-01  4.4408920985006262e-16  4.4408920985006262e-16  6.1520081715566721e-01  9.9999999999999978e-01  6.2966648150158566e-01  5.7770043637872881e-01  5.4808882009679194e-01  9.9999999999999956e-01  9.9999999999999978e-01  9.9999999999999956e-01  6.8797926819889987e-01  5.9744891611645989e-01  4.4408920985006262e-16  5.5962986297364004e-01  6.5912828261215184e-01  9.9999999999999978e-01  9.9999999999999989e-01  1.0000000000000000e+00  9.9999999999999989e-01  1.0000000000000000e+00  9.9999999999999989e-01  4.4408920985006262e-16  4.4408920985006262e-16  5.8549832582511852e-01  5.9241961345965799e-01  9.9999999999999989e-01  5.7989419252026808e-01  6.0813911959190092e-01  5.7812880214889628e-01  3.3306690738754696e-16  6.2362802818805829e-01  5.7287082954468405e-01  5.7167398873552611e-01  9.9999999999999944e-01  9.9999999999999944e-01  4.4408920985006262e-16  4.4408920985006262e-16  6.0104963435580916e-01  9.9999999999999978e-01  1.0000000000000000e+00  1.0000000000000000e+00  5.9871254083865921e-01  5.6615288403116615e-01  9.9999999999999944e-01  6.0597426170333857e-01  6.3495952753943097e-01  9.9999999999999956e-01  9.9999999999999944e-01  9.9999999999999956e-01  6.2633119950848570e-01  9.9999999999999944e-01  9.9999999999999944e-01  5.5900210280250162e-01  5.9061211577271799e-01  9.9999999999999967e-01  9.9999999999999978e-01  5.1881391566071200e-01  1.1102230246251565e-16  1.3877787807814457e-16  4.3295728365860664e-01  1.6653345369377348e-16  5.5511151231257827e-16  5.7306811325340834e-01  9.9999999999999978e-01  6.0820819690772454e-01  9.9999999999999944e-01  5.9575762870959470e-01  9.9999999999999944e-01  9.9999999999999967e-01  4.4408920985006262e-16  6.0909597674296523e-01  5.9929224068626186e-01  3.3306690738754696e-16  5.8640171958957954e-01  6.8645630278163172e-01  1.0000000000000000e+00  1.0000000000000000e+00  5.8028904414068561e-01  5.7098403331826009e-01  4.4408920985006262e-16  9.9999999999999989e-01  9.9999999999999989e-01  1.0000000000000000e+00  6.5550210521058550e-01  2.7755575615628914e-16  5.9866597137488353e-01  3.3306690738754696e-16  1.6653345369377348e-16  2.2204460492503131e-16  3.3306690738754696e-16  3.3306690738754696e-16  9.9999999999999956e-01  9.9999999999999967e-01  9.9999999999999956e-01  4.4408920985006262e-16  5.9803631740586638e-01  6.0121060145583449e-01  7.3998379991275254e-01  9.9999999999999956e-01  1.0000000000000000e+00  9.9999999999999956e-01  1.3877787807814457e-16  2.2204460492503131e-16  9.9999999999999956e-01  5.6935674826159477e-01  9.9999999999999956e-01  9.9999999999999978e-01  1.6653345369377348e-16  5.8839538041241157e-01  2.7755575615628914e-16  9.9999999999999978e-01  1.0000000000000000e+00  6.1130649587193542e-01  9.9999999999999944e-01  5.4285115780563575e-01  5.9000051504763340e-01  9.9999999999999944e-01  9.9999999999999956e-01  9.9999999999999956e-01  9.9999999999999956e-01  9.9999999999999944e-01  9.9999999999999944e-01  6.6642887886630575e-01  4.4408920985006262e-16  5.7759762958261796e-01  6.0699951519178197e-01  5.9829805053632534e-01  9.9999999999999967e-01  5.5511151231257827e-16  4.4408920985006262e-16  6.0652461347348052e-01  5.9015189323641470e-01  0.0000000000000000e+00  5.7931162743428533e-01  0.0000000000000000e+00  1.1102230246251565e-16  6.5653100612118598e-01  9.9999999999999956e-01  6.2123265834869024e-01  2.7755575615628914e-16  5.7618212961824222e-01  9.9999999999999989e-01  1.6653345369377348e-16  1.6653345369377348e-16  9.9999999999999978e-01  6.3331127509376484e-01  9.9999999999999956e-01  5.9749070628122292e-01  0.0000000000000000e+00  0.0000000000000000e+00  1.3877787807814457e-16  1.0000000000000000e+00  1.0000000000000000e+00  9.9999999999999989e-01  9.9999999999999989e-01  9.9999999999999978e-01  9.9999999999999989e-01  4.4408920985006262e-16  1.0000000000000000e+00  5.6173062465059953e-01  6.0707136588904043e-01  6.0823705202314793e-01  1.0000000000000000e+00  4.4408920985006262e-16  9.9999999999999956e-01  6.0821683500191071e-01  9.9999999999999989e-01  9.9999999999999978e-01  9.9999999999999989e-01  9.9999999999999956e-01  9.9999999999999956e-01  1.0000000000000000e+00  4.4408920985006262e-16  5.5508655733810874e-01  9.9999999999999978e-01  1.0000000000000000e+00  6.1046085211382362e-01  5.8588506342207103e-01  9.9999999999999944e-01  4.4408920985006262e-16  5.9000505930711888e-01  9.9999999999999944e-01  9.9999999999999956e-01  9.9999999999999956e-01  9.9999999999999956e-01  0.0000000000000000e+00  2.7755575615628914e-16  5.8131602592135967e-01  9.9999999999999967e-01  9.9999999999999978e-01  9.9999999999999944e-01  5.3486155379236711e-01  5.6670203124540430e-01  5.8197702485430602e-01  1.3877787807814457e-16  9.9999999999999944e-01  9.9999999999999978e-01  9.9999999999999978e-01  0.0000000000000000e+00  9.9999999999999956e-01  9.9999999999999956e-01  1.0000000000000000e+00  9.9999999999999944e-01  9.9999999999999944e-01  7.0407723553597945e-01  5.3194467153783498e-01  9.9999999999999956e-01  1.1102230246251565e-16  0.0000000000000000e+00  6.0549525823235295e-01  3.3306690738754696e-16  2.2204460492503131e-16  4.4408920985006262e-16  1.0000000000000000e+00  9.9999999999999944e-01  1.3877787807814457e-16  5.9941433734715588e-01  9.9999999999999944e-01  6.0439354793810263e-01  9.9999999999999944e-01  4.4408920985006262e-16  5.7394326182769795e-01  6.0623724150950831e-01  9.9999999999999978e-01  9.9999999999999978e-01  9.9999999999999978e-01  9.9999999999999978e-01  9.9999999999999967e-01  9.9999999999999967e-01  9.9999999999999944e-01  9.9999999999999933e-01  9.9999999999999956e-01  9.9999999999999978e-01  9.9999999999999978e-01  5.8534876634870925e-01  4.4408920985006262e-16  4.4408920985006262e-16  6.0876988875862714e-01  3.3306690738754696e-16  4.4408920985006262e-16  4.4408920985006262e-16  9.9999999999999944e-01  9.9999999999999944e-01  9.9999999999999944e-01  5.9827402912686745e-01  9.9999999999999956e-01  9.9999999999999956e-01  9.9999999999999956e-01  6.0263588253932210e-01  9.9999999999999967e-01  0.0000000000000000e+00  0.0000000000000000e+00  5.9592382342819550e-01  9.9999999999999956e-01  6.0118530048057528e-01  9.9999999999999944e-01  6.1934057664404296e-01  5.9950205645972687e-01  1.0000000000000000e+00  6.0583931646744715e-01  9.9999999999999933e-01  0.0000000000000000e+00  5.5511151231257827e-16  9.9999999999999956e-01  9.9999999999999944e-01  9.9999999999999944e-01  9.9999999999999967e-01  8.3266726846886741e-17  9.9999999999999978e-01  0.0000000000000000e+00  6.0625946440245027e-01  9.9999999999999967e-01  9.9999999999999989e-01  9.9999999999999989e-01  9.9999999999999944e-01  5.9254802571408782e-01  1.0000000000000000e+00  9.9999999999999989e-01  9.9999999999999944e-01  1.0000000000000000e+00  9.9999999999999989e-01  6.0192218837490374e-01  1.0000000000000000e+00  6.0335622982880677e-01  1.0000000000000000e+00  9.9999999999999956e-01  9.9999999999999978e-01  6.0656753962034915e-01  9.9999999999999944e-01  9.9999999999999944e-01  5.8959084453341737e-01  1.0000000000000000e+00  9.9999999999999944e-01  6.0659291056951570e-01  9.9999999999999967e-01  6.0336329120101473e-01  1.0000000000000000e+00  9.9999999999999989e-01  6.0860909772995342e-01  1.0000000000000000e+00  5.9934752965934357e-01  9.9999999999999989e-01  9.9999999999999956e-01  9.9999999999999978e-01  5.9590038104173904e-01  9.9999999999999978e-01  9.9999999999999978e-01  </DataArray> 
</PointData> 
</Piece>
</UnstructuredGrid>
</VTKFile>