<?xml version="1.0"?>
<VTKFile type="UnstructuredGrid"  version="0.1"  >
<UnstructuredGrid>
<Piece  NumberOfPoints="978" NumberOfCells="4161">
<Points>
<DataArray  type="Float64"  NumberOfComponents="3"  format="ascii">8.319643491173018 3.697186942580402 3.569799973543017  8.209755681804555 3.732754879551128 3.541608330734075  8.270531038319993 3.655607916605709 3.658887967374937  8.279966809966416 3.714032049478897 3.693263443202586  8.222105633827887 3.792418340455118 3.569103869429402  8.329425764164545 3.756137916606239 3.598389825516353  8.339177517575854 3.815096839711512 3.627265553317838  8.234380501651586 3.852145944569824 3.5968936791587  8.289359823353108 3.772407970281509 3.727930689872625  8.348944255094917 3.874170679501815 3.656298094777132  8.246670865252579 3.91199429267202 3.624826750457384  8.298751760038778 3.830823718163463 3.762719933414696  8.358768510170126 3.933412156074551 3.685376802541644  8.259078077095994 3.97200664084288 3.65279839758519  8.308199476171934 3.889355059938033 3.797554125869482  8.27173611683817 4.032219416636341 3.680717791354044  8.368694472652463 3.992920538793599 3.714434472500275  8.317750179764142 3.948104935278569 3.832372513710823  8.378862496575172 4.05275447471956 3.743389800844183  8.284705454966016 4.092837631944665 3.708578380777751  8.327469583138106 4.007184536229238 3.867117620846085  8.913205175866649 4.177015785935831 3.058568706588044  8.960366753043406 4.161118729546361 3.142909829174596  8.872919135181176 4.144844291846601 3.188011662424925  8.876974048227517 4.090964005662689 3.173590004504922  8.887972614817221 4.27563985573046 2.778454943097415  8.943545650576706 4.243084699946415 2.871261481109642  8.823619076358034 4.226636111743328 2.883700043952831  8.828154626954319 4.17570064699957 2.865540116899665  9.086977039454791 3.969380426832473 3.755913006459457  8.977741085898524 3.99654388774092 3.681728322870159  8.968600608306199 3.917172031237474 3.863032797915008  8.975082618645859 4.055403828305302 3.706572553970174  8.967493775225321 3.9745230544923 3.896843728713279  8.892628173690408 4.205789038705409 2.956705871656081  8.146856179120785 3.696657975811645 3.625773379941781  8.160639385365798 3.754930876751613 3.660324381249795  8.174296233844931 3.813180635239865 3.695121015437744  8.187931665162644 3.871474416916759 3.730064762263255  8.201638939810138 3.929849626774744 3.76505178952973  8.21553181455471 3.988333113030436 3.800013952474672  8.229765723839185 4.046979108667266 3.834898251947536  8.896527013464288 3.825852286775401 3.101628448577795  8.938308606269832 3.869509059736925 2.963256761118864  8.801977227266025 3.840976379840709 3.023592456374373  8.798755602450578 3.892653072206757 3.038368010073994  8.88087766539191 4.037455988452161 3.159121980107157  8.921685499713199 4.073544495789157 3.026540819790161  8.789471949704728 4.049060976350285 3.083166144770087  8.78635690080684 4.101746193247229 3.098185179174368  8.917504387358493 4.125136224547095 3.042525043351042  8.783133910646924 4.154796541790195 3.113227854068029  8.792762202218224 3.696396151763398 3.54146591703225  8.649744830251441 3.672964733707389 3.583513280730143  8.772640778136937 3.649472854130215 3.640855401501173  8.768990284976448 3.708087580819491 3.670532989788787  8.64860134322425 3.731883573329672 3.610532770724431  8.789870981311777 3.755710788400667 3.563911384505068  8.765571630786777 3.766629567148566 3.700487936337559  8.647636642476499 3.790828349223517 3.637857941620996  8.787171507784793 3.8150590159227 3.586636354598007  8.762273762901915 3.825185344661968 3.730576406756405  8.646770006396023 3.849861090051864 3.665334656727977  8.784572750769483 3.874499469085732 3.609501065423363  8.759004420881773 3.883812837929738 3.760690491040727  8.645934523379527 3.909033462922631 3.692846838781268  8.781995826586932 3.934074158555823 3.632392358239761  8.75567081591549 3.942537541486445 3.790745651090375  8.6450503800005 3.968396397900934 3.720303721661851  8.779361369686253 3.993824165368165 3.655209844140292  8.752145149065868 4.001352442682048 3.82066697091783  8.644018039044875 4.028006387372064 3.747621345754881  8.776556969528061 4.053774785769324 3.677840915060511  8.192452217606577 3.619956645927086 3.738570748849374  8.202833154207765 3.676026534712004 3.780728377804022  8.2131280938814 3.731965290572147 3.823087415838177  8.223404291215315 3.787899927998474 3.865529845486331  8.233734027858612 3.843899377123442 3.908008341188749  8.244190900812288 3.900034813009527 3.950495465243272  8.254813307308691 3.956398424076886 3.992953939653114  8.704216122225265 3.7139097771242 3.47690925955811  8.702904048026133 3.772792182075671 3.496871773958057  8.701752446665697 3.831796050183871 3.51714259596698  8.700691789023731 3.890957588251408 3.537560992726517  8.699660935229529 3.950308680867158 3.558008931715351  8.698591949943504 4.009886358890847 3.57837856155736  8.697421595166396 4.069721622432352 3.598557352382036  8.645507321494515 3.890054223807828 2.833896071609368  8.703504692983365 3.926478746397023 2.737216955425222  8.54741901508455 3.907162251800965 2.767589484694996  8.642897982633635 3.940682711941303 2.850276829734281  8.699752227741014 3.97686158163255 2.754762765166923  8.545346445110837 3.958421845110029 2.783376802012124  8.543358656859057 4.009931871893698 2.799130168393453  8.696094698030722 4.027489880064721 2.772246150982338  8.640374889413634 3.991607245492688 2.866683445457233  8.541414152917351 4.061720881216752 2.814926857845337  8.692463804676892 4.0783557654534 2.78976822223495  8.637882360016977 4.042779658946714 2.883131168861514  8.539464611417213 4.113783656772204 2.830831514211695  8.688817074205929 4.129450454608144 2.80739173885484  8.63539258684435 4.094221648588507 2.899664910417975  8.53746454070972 4.16613529995451 2.846899418579576  8.685103283464601 4.180772894767726 2.825191372646821  8.632861842035695 4.145967448748226 2.916340125174083  8.535363461800378 4.218779369874963 2.863197715476147  8.681273381289442 4.232320240054051 2.84328382523663  8.630219968111104 4.198101586165339 2.933269123136095  8.250236339754766 3.842448553084338 3.098512530096466  8.201854686704827 3.865531508799678 3.010230893182188  8.156792330062045 3.852510585632493 3.141619658163875  8.170038410439728 3.90976613473241 3.15200621492904  8.211085970337809 3.921022791536321 3.019991851769271  8.258965938832581 3.898370741094769 3.110017756952692  8.183148041244173 3.967278400747528 3.162643882038809  8.220211746683251 3.976767914619356 3.029942466370115  8.267607386536083 3.954556370766664 3.121742910132826  8.196331787259741 4.025097028581134 3.173354731592234  8.229388138603584 4.03280911240632 3.039972704457743  8.276325695511034 4.011030161651362 3.133528481548479  8.209676956327613 4.083213922305274 3.184054200681956  8.238713994576999 4.089164436180187 3.049999900466438  8.285203937457544 4.067822149602925 3.145303063118238  8.223306777504424 4.141639186773681 3.194668780525185  8.248289380775345 4.145865983545948 3.0599759540262  8.294343260168596 4.124967891518275 3.156999318845513  8.237443383260455 4.200349874887842 3.205076254559073  8.258262983508299 4.202987418994402 3.069818734707637  8.303866701237535 4.182608057225996 3.168574193183616  8.074454912253051 3.669681685058384 3.696799090824312  8.090162004287937 3.726703573630894 3.736932750052444  8.105678957843793 3.783661350281219 3.777259207558901  8.121134749618372 3.840614196370445 3.817691409274783  8.136634098866072 3.897604347296144 3.858154173037596  8.152325059141107 3.954653477305579 3.898575302310462  8.168404468128054 4.011872412753982 3.938950710960126  8.91969193935979 3.903739148817139 2.853349498971146  8.850000488309339 3.924430951421513 2.77700045749684  8.83591559299548 3.875924852783353 2.917566754690413  8.832161926925526 3.926352244103224 2.933667442111328  8.813725757204644 4.182173485071072 3.0151302116418  8.076357174882535 3.887786713823428 3.048361430753219  8.090186724526438 3.944884969503273 3.056655475797461  8.103876002510457 4.002334496219481 3.065198703935767  8.117617199347418 4.06005459451498 3.073808239872693  8.131532306653339 4.118065896138431 3.082391088707706  8.14575624751002 4.176389131965327 3.090872361238358  8.160486813763159 4.23502359315848 3.099157185982016  9.003056694475823 3.569947517023636 3.791386873810843  8.974074714784079 3.63017503845702 3.693390042021607  8.885083600362723 3.563630430213043 3.795366095478767  8.882681370729099 3.616719741218734 3.839688836318679  9.002877628025686 3.891997510826955 4.049165336580164  8.871779663555662 3.880505302745985 4.061663143415424  8.874058236506931 3.827794779789523 4.017363782190896  8.10403195602003 3.776990064027274 3.498666722735199  8.123255032006261 3.836728585210654 3.523498150265912  8.142288002854412 3.896601144382763 3.548628045647048  8.161289558707137 3.956617083363754 3.573903112355919  8.180391133382049 4.016795022547936 3.599203274077616  8.199742947429327 4.077149386103357 3.624421071642238  8.219678349712442 4.137617519492793 3.649454829742817  8.746395429579321 3.890542382414808 2.85125740979777  8.742915876485345 3.940836592972944 2.867752418262612  8.845558936027526 3.974246134588466 2.794653993755094  8.828488394984484 3.97702182795335 2.949809705238122  8.739526901605924 3.991432538205714 2.884264799692522  8.841212600020709 4.024305650680372 2.812261683004634  8.824858430285433 4.027933460796423 2.966012486417316  8.736181182600307 4.042271117617888 2.900831261683709  8.836894168489238 4.074569616046895 2.829906045595228  8.821222460450592 4.07908275470528 2.982288292506203  8.732824628572541 4.093353830165119 2.917483623776817  8.832556856507283 4.125039009432236 2.847645875211998  8.817530937503598 4.130487904321829 2.998653197739202  8.729415926901499 4.144695210761133 2.934263440559665  8.725892256437756 4.196309956511916 2.951229292540231  8.749620169674962 3.592703971356865 3.746447403912979  8.661546608722553 3.506052150765874 3.836096524568
[...]
<PointData  Vectors="f_16"> 
<DataArray  type="Float64"  Name="f_16"  NumberOfComponents="3" format="ascii">2.4760636064031345e-02 -1.4007566418682903e-02 8.2522615285734995e-03  2.4854076913178438e-02 -1.3694610365141548e-02 8.4138444356015741e-03  2.5575781783475950e-02 -1.2931081813371244e-02 9.0634467213295041e-03  2.5984781840270605e-02 -1.2528152314073806e-02 8.4699845637599049e-03  2.5383680374770737e-02 -1.3466367950545914e-02 7.7742686006686832e-03  2.5119977155031090e-02 -1.3700330531123876e-02 7.5970419228170378e-03  2.5455930984040660e-02 -1.3330761476137926e-02 7.0437542701959534e-03  2.5872206073040582e-02 -1.3162890026594137e-02 7.2193317087287474e-03  2.6352710324390769e-02 -1.2085718768648227e-02 7.9685189698847220e-03  2.5799242946379808e-02 -1.2896069509416009e-02 6.5470122411739251e-03  2.6361521392643007e-02 -1.2792646923442971e-02 6.7176664030569044e-03  2.6725426039689547e-02 -1.1599340194876361e-02 7.5259480566366565e-03  2.6174234169363923e-02 -1.2386133075701198e-02 6.0840139683945773e-03  2.6911337175600254e-02 -1.2363116766648214e-02 6.2384839272146501e-03  2.7128667673138502e-02 -1.1052347040398529e-02 7.1208952898261201e-03  2.7474918615377833e-02 -1.1872129084564564e-02 5.8125442033614642e-03  2.6579733700054391e-02 -1.1765980780070347e-02 5.6436759737460923e-03  2.7594850738920970e-02 -1.0418043923557418e-02 6.7409904675765509e-03  2.6892283052570288e-02 -1.1029385464161174e-02 5.2214884227244698e-03  2.7937283498948581e-02 -1.1271814000392040e-02 5.4616368309666598e-03  2.7975117732762751e-02 -9.6608148543526409e-03 6.3876490011254604e-03  1.8834799712839623e-02 -1.6081517243472551e-02 1.4273118756848644e-03  1.8518389075673929e-02 -1.5307456199633621e-02 1.2877985626756061e-03  1.9403513484469927e-02 -1.5587222182893497e-02 1.5342808513713485e-03  1.9734082287182046e-02 -1.6100952761111956e-02 1.8208323625998077e-03  1.8499214772826067e-02 -1.6117662862806061e-02 1.9971666051901804e-03  1.8253531106772039e-02 -1.6077958330167615e-02 1.6056388981537616e-03  1.9279963583781718e-02 -1.6840301471890199e-02 1.9231889184752856e-03  1.9548670182678640e-02 -1.7176012059730312e-02 1.6923008888899335e-03  1.9468687295556720e-02 -8.1094670501616409e-03 4.5937372117777139e-03  2.0150860690975173e-02 -9.6973736087484115e-03 3.9763131722102101e-03  2.1124078560079324e-02 -7.6820641295505636e-03 5.7860411553045735e-03  1.9800164118491271e-02 -9.0977035867177564e-03 3.3483399224255505e-03  2.0845535355093734e-02 -7.0291701675338786e-03 5.2410828201508433e-03  1.8844987836408412e-02 -1.6463080489977390e-02 1.5893288842867758e-03  2.5673815873317615e-02 -1.2581215278281857e-02 9.2973076934891631e-03  2.6265807565722495e-02 -1.2266046737362297e-02 8.6989781413550366e-03  2.6799804209631649e-02 -1.1892746246895455e-02 8.1865125863589093e-03  2.7318474994100256e-02 -1.1469158068126232e-02 7.7281166333768546e-03  2.7872301640602150e-02 -1.1003585831059979e-02 7.2996787298878762e-03  2.8493161412309002e-02 -1.0508993220820604e-02 6.9084303701872490e-03  2.9059328318713426e-02 -9.9453275832083379e-03 6.6523034751789605e-03  2.1115859094030267e-02 -1.7188680951454319e-02 3.2931962284371442e-03  2.0586062643004267e-02 -1.7377834052413277e-02 2.1645358121075643e-03  2.1368844456700099e-02 -1.8047801088034644e-02 2.9691915876023092e-03  2.1148080960426717e-02 -1.8051164220091172e-02 2.7177485377149297e-03  2.0026404958055848e-02 -1.6499265368779631e-02 2.0930239491885124e-03  1.9463565332143076e-02 -1.6864871212080624e-02 1.5928816357569835e-03  2.0575961414014573e-02 -1.7509865814313137e-02 2.0993629427912960e-03  2.0359904904100782e-02 -1.7128238075518554e-02 1.9260553210903638e-03  1.9157288515886356e-02 -1.6524962897755176e-02 1.4968850914745117e-03  2.0113939756031218e-02 -1.6612764944358774e-02 1.7682240256456545e-03  2.3061983412513046e-02 -1.3761560809515638e-02 6.9896192745677954e-03  2.3997609167739742e-02 -1.3894428130666188e-02 7.5959589481081119e-03  2.3710855986248790e-02 -1.2680211664692426e-02 7.9519831167078787e-03  2.3448715257211837e-02 -1.2148923995015498e-02 7.3162183510554046e-03  2.3869601284666222e-02 -1.3468555010726519e-02 6.9255061554137987e-03  2.2785902833230585e-02 -1.3375032956822479e-02 6.3071888284337262e-03  2.3278478365776116e-02 -1.1606880829624803e-02 6.7664462724213569e-03  2.3807356298102156e-02 -1.2990384603004997e-02 6.3570877848743651e-03  2.2582262005247503e-02 -1.2943539823428553e-02 5.7152895068356500e-03  2.3153055133736302e-02 -1.1033986529677853e-02 6.2604437143265581e-03  2.3781220734453788e-02 -1.2452730391541808e-02 5.8395039869787602e-03  2.2414024136646688e-02 -1.2459592371430213e-02 5.1657639693848192e-03  2.3034044644247260e-02 -1.0418924827690135e-02 5.7624319318254321e-03  2.3761551173314500e-02 -1.1844924945063486e-02 5.3330258232886724e-03  2.2247790091722647e-02 -1.1915657465845398e-02 4.6215055330662645e-03  2.2882203166777026e-02 -9.7535437585933235e-03 5.2433598045409932e-03  2.3715665750310293e-02 -1.1155460919820488e-02 4.8042794183741000e-03  2.2050362980378362e-02 -1.1303998091419585e-02 4.0484489575830793e-03  2.2647106371570486e-02 -9.0240919187635597e-03 4.6747401962437965e-03  2.3607898553335529e-02 -1.0370171240978467e-02 4.2305003014409355e-03  2.1780116388718733e-02 -1.0633259906004163e-02 3.4048003281509733e-03  2.6527932890076919e-02 -1.1867581324667899e-02 9.8785929810686623e-03  2.7021135473968987e-02 -1.1393568249748793e-02 9.3977700081139554e-03  2.7444461737700671e-02 -1.0889778089824602e-02 8.9891454819647151e-03  2.7869618181900341e-02 -1.0357216644009369e-02 8.6308490217996848e-03  2.8324079260812741e-02 -9.7833797676924322e-03 8.3058446819579603e-03  2.8852869731566776e-02 -9.1462820247348361e-03 8.0059379453006202e-03  2.9350255929420303e-02 -8.4251343911075274e-03 7.7544765456458876e-03  2.3197021713526909e-02 -1.4932190176435732e-02 6.6348411738135892e-03  2.3016644206347234e-02 -1.4651989736117662e-02 5.9579495715982979e-03  2.2891611145441672e-02 -1.4295136708839471e-02 5.3676760007351819e-03  2.2796779138909786e-02 -1.3861064469339990e-02 4.8232479304733495e-03  2.2704659671389751e-02 -1.3344738259019918e-02 4.2868786211881201e-03  2.2587588876791964e-02 -1.2738004818359907e-02 3.7220510494786049e-03  2.2426440070629904e-02 -1.2027125079042439e-02 3.0930964099612256e-03  2.1630736419127043e-02 -1.8812787653227914e-02 2.2838214848127088e-03  2.1338490103399620e-02 -1.8262169773075588e-02 1.5348967572134501e-03  2.1902313470126448e-02 -1.8925500795407741e-02 2.3536030531285048e-03  2.1535886540634933e-02 -1.8890499358906500e-02 2.2438107861258317e-03  2.1178074530189404e-02 -1.8348452537796184e-02 1.6312839491418850e-03  2.1877902708060625e-02 -1.9021623345187338e-02 2.3697858079670632e-03  2.1869749112648912e-02 -1.9013556703055771e-02 2.3889173246442264e-03  2.1035559311019705e-02 -1.8340743356271061e-02 1.7225540317876201e-03  2.1460087445711169e-02 -1.8868963737281357e-02 2.2133656659468156e-03  2.1869567186239874e-02 -1.8904647124744680e-02 2.4250501867553861e-03  2.0898911560990521e-02 -1.8244938166886559e-02 1.8269893112851274e-03  2.1391719938469680e-02 -1.8750104745150171e-02 2.1994059121330854e-03  2.1865192579557522e-02 -1.8694639503219791e-02 2.4957380252485584e-03  2.0756273562677518e-02 -1.8064567237814601e-02 1.9632197063545326e-03  2.1318569184766233e-02 -1.8532725337387805e-02 2.2152025706594458e-03  2.1841147364761011e-02 -1.8382821932143811e-02 2.6238131588495438e-03  2.0595269163839802e-02 -1.7801805769496297e-02 2.1544692007729530e-03  2.1227790314320611e-02 -1.8210239395673639e-02 2.2797539544878453e-03  2.1796040582758025e-02 -1.7964642990667027e-02 2.8357244944697208e-03  2.0406205897860134e-02 -1.7460670394142619e-02 2.4376108212013402e-03  2.1106848180438141e-02 -1.7772208800092025e-02 2.4233366212793733e-03  2.2642523004502150e-02 -1.7477125049468602e-02 5.7832476967945847e-03  2.2589937335817902e-02 -1.7576086750387115e-02 5.5846281729109871e-03  2.3029392696667331e-02 -1.6413089371972066e-02 6.4888598258379714e-03  2.3589865729981060e-02 -1.6549001397830269e-02 6.0154744857708270e-03  2.3065562909283275e-02 -1.7712833783029739e-02 5.2296788599716882e-03  2.3088432107290911e-02 -1.7582096633100286e-02 5.3634053781847456e-03  2.4113074613746975e-02 -1.6582885612095814e-02 5.5776766307480971e-03  2.3512786860951280e-02 -1.7747962618428616e-02 4.9058220780289546e-03  2.3510336956581671e-02 -1.7578998176151495e-02 4.9799008303076037e-03  2.4638608874473285e-02 -1.6526101627871086e-02 5.1581840708684514e-03  2.3966614003175266e-02 -1.7686785840989240e-02 4.5973723336819152e-03  2.3944898505772142e-02 -1.7477756961489174e-02 4.6127628790842042e-03  2.5208147093419359e-02 -1.6390935732621806e-02 4.7354821563627076e-03  2.4467608077757740e-02 -1.7532771795942089e-02 4.2860548325294456e-03  2.4426427088405856e-02 -1.7281307601312842e-02 4.2462007497221866e-03  2.5736207174447107e-02 -1.6155436844017067e-02 4.3207132875455467e-03  2.4933899879996786e-02 -1.7264904504325215e-02 3.9846650348407554e-03  2.4864417526804912e-02 -1.6968610659295960e-02 3.8910031386231456e-03  2.6158454899612230e-02 -1.5796024533111106e-02 3.9145773557904993e-03  2.5296213910223544e-02 -1.6855724377064837e-02 3.7070134020465812e-03  2.5198668590924900e-02 -1.6512971164057644e-02 3.5504881042253064e-03  2.6562661933883132e-02 -1.1585993591202512e-02 1.0106488363289678e-02  2.7212684422738463e-02 -1.1225171230576581e-02 9.5615293046901351e-03  2.7781118170634299e-02 -1.0809660255933122e-02 9.0977157202493351e-03  2.8320873417621767e-02 -1.0358551828219504e-02 8.6853531847488827e-03  2.8881506555842953e-02 -9.8805424738296344e-03 8.3002672228321157e-03  2.9524672118868930e-02 -9.3855590642789519e-03 7.9292008273595081e-03  3.0167512647921387e-02 -8.8621633045397469e-03 7.7085812999709300e-03  2.0453499213006029e-02 -1.7476313779457200e-02 1.4750284700554045e-03  2.0680884027613141e-02 -1.7667954845546029e-02 1.2282476585508005e-03  2.1005444912412328e-02 -1.8025398081868840e-02 2.1275337003435670e-03  2.0772315080805348e-02 -1.8053010729135954e-02 2.0105968540845474e-03  1.9634680339933940e-02 -1.6836813320982750e-02 1.7426705775546506e-03  2.3135375855690993e-02 -1.6191230287126351e-02 6.4449881821668645e-03  2.3752680928969181e-02 -1.6357952359219850e-02 6.0341150735329424e-03  2.4331680006916535e-02 -1.6430188194919728e-02 5.6593151146563945e-03  2.4909311670581830e-02 -1.6417960538453968e-02 5.3002697096156872e-03  2.5529948687064687e-02 -1.6336626892390526e-02 4.9330685048334958e-03  2.6112952463170878e-02 -1.6165415748444791e-02 4.5580043349545702e-03  2.6598101591553281e-02 -1.5884849899465658e-02 4.1883628047007541e-03  2.2568377434342288e-02 -9.6171756448375657e-03 9.4099725160513153e-03  2.2410778090256336e-02 -1.0891292842551175e-02 8.3178996124143954e-03  2.3712515619078885e-02 -1.0250235081783325e-02 9.5136235953254787e-03  2.3441015429343237e-02 -9.4670981797998523e-03 9.1096647691624715e-03  2.1376011859528758e-02 -5.4107032287497494e-03 6.9816710805107032e-03  2.2597415764115836e-02 -5.9527665810800304e-03 7.2232063240688128e-03  2.2822027192654030e-02 -6.6578349828698771e-03 7.6492126019481153e-03  2.4950938386542408e-02 -1.3251205999315261e-02 8.6002421088391297e-03  2.5618831488818695e-02 -1.3156827865003598e-02 7.9369037973488505e-03  2.6207858767892299e-02 -1.2967599486663428e-02 7.3562205829342713e-03  2.6780173019720327e-02 -1.2707594928707017e-02 6.8206519709271291e-03  2.7395329259579819e-02 -1.2399164602617439e-02 6.3022096366493361e-03  2.8004024934950252e-02 -1.2045116151228535e-02 5.8303668587922890e-03  2.8563215064190999e-02 -1.1651301628413824e-02 5.4667097199509089e-03  2.1286105194112580e-02 -1.8428770633241442e-02 1.9984558379670383e-03  2.1112432149825697e-02 -1.8490129861839278e-02 1.9570863573516524e-03  2.0446900722328829e-02 -1.7732297129871281e-02 1.2942995392508474e-03  2.0558696983111246e-02 -1.7993109569305901e-02 1.9079985882461739e-03  2.0958315651714465e-02 -1.8458061191250229e-02 1.9229608391780827e-03  2.0225867261824407e-02 -1.7710033605279171e-02 1.3586367346486517e-03  2.0351436545420862e-02 -1.7846768771149310e-02 1.8232818523722875e-03  2.0810976359311700e-02 -1.8334977926698390e-02 1.9056574008736956e-03  2.0009770863154912e-02 -1.7608268965119071e-02 1.4355607486303179e-03  2.0136401062473736e-02 -1.7611526221492122e-02 1.7610451985301898e-03  2.0657816335673283e-02 -1.8120641963796754e-02 1.9159906731562560e-03  1.9787297979971648e-02 -1.7429844124082973e-02 1.5401512132917901e-03  1.9897028584872068e-02 -1.7279538075319810e-02 1.7275237908826117e-03  2.0484029615501768e-02 -1.7810510819032638e-02 1.9683405341175998e-03  2.0283663090083136e-02 -1.7394352447255377e-02 2.0899903259862804e-03  2.4463126822763276e-02 -1.1509210329762166e-02 8.9932156952350750e-03  2.5742911986077185e-02 -1.0862581760746814e-02 1.0177444793101176e-02  2.4897307048626850e-02 -1.0451065609729018e-02 1.0063976584326105e-02  2.4660819052732177e-02 -9.6645884371363670e-03 9.7377427293679694e-03  2.5578665879617987e-02 -1.0101167599639076e-02 9.8455816211902338e-03  2.4227817731033004e-02 -1.0830139744178135e-02 8.4749375810605279e-03  2.4532875620342794e-02 -8.9309472882943761e-03 9.4516292845017030e-03  2.5507605184010348e-02 -9.3866128314954583e-03 9.5743535577443965e-03  2.4094260606009048e-02 -1.0171748847965074e-02 8.0361031691078555e-03  2.4456048421990551e-02 -8.2200091302314874e-03 9.1811623477488832e-03  2.5484181083126705e-02 -8.6832036045172336e-03 9.3277553186875313e-03  2.4006912319624894e-02 -9.5063621012489528e-03 7.6299735164362332e-03  2.4384493816749196e-02 -7.5087297546303153e-03 8.9069368954508132e-03  2.5468909654197309e-02 -7.9681960959069112e-03 9.0851205219524278e-03  2.3922448113474749e-02 -8.8151602491496530e-03 7.2274066389603625e-03  2.4275749605298099e-02 -6.7839861346503114e-03 8.6156217825221048e-03  2.5424317963828703e-02 -7.2238669732468484e-03 8.8293563975102053e-03  2.3798971853421527e-02 -8.0884592345443103e-03 6.8039606402827343e-03  2.4086946941732443e-02 -6.0403372552015168e-03 8.2976028313270778e-03  2.5319543453661920e-02 -6.4145921338834280e-03 8.5538277736426395e-03  2.3595102906722600e-02 -7.3287945414713881e-03 6.3321777696118678e-03  2.5972594625205708e-02 -1.1766163797246385e-02 9.6910041291243792e-03  2.7060206087218628e-02 -1.0905326840711939e-02 1.0616086253892928e-02  2.6615782502893308e-02 -1.0699827086355128e-02 1.0584361410944832e-02  2.6566458306790035e-02 -9.9598107092874928e-03 1.0379439321260510e-02  2.7146884718552741e-02 -1.0213922394899195e-02 1.0413764681837256e-02  2.5968435768301185e-02 -1.1093280962018670e-02 9.2610491610270931e-03  2.6577714083319288e-02 -9.2581625200677392e-03 1.0200080513062280e-02  2.7250963095891537e-02 -9.5392038807763074e-03 1.0241853796472846e-02  2.6007668142043271e-02 -1.0434688026990272e-02 8.9111275634376260e-03  2.6624813466854025e-02 -8.5595426691812502e-03 1.0044861140283134e-02  2.7386127933277424e-02 -8.8631821812426310e-03 1.0098864172943877e-02  2.6084947144556413e-02 -9.7650733086037719e-03 8.6049702954255937e-03  2.6677235295042206e-02 -7.8416154033591669e-03 9.9006929884031796e-03  2.7531316363101323e-02 -8.1622443893307074e-03 9.9735029594995844e-03  2.6174251371475516e-02 -9.0613934414253555e-03 8.3154282190816709e-03  2.6702634372844709e-02 -7.0844433917138135e-03 9.7597733153380484e-03  2.7661498026723609e-02 -7.4156392033066327e-03 9.8599312457011805e-03  2.6246227426659236e-02 -8.3023336649486312e-03 8.0277127614039687e-03  2.6669929693358702e-02 -6.2844468219851145e-03 9.6058202847741376e-03  2.7735948015002822e-02 -6.5953332628789956e-03 9.7589224189583330e-03  2.6263638549554196e-02 -7.4559353313231437e-03 7.7622411410484780e-03  2.3394600228462750e-02 -1.1503140063259632e-02 8.4499344273281322e-03  2.3101033830291131e-02 -1.0853518331141017e-02 7.8659938906323716e-03  2.2077563960799650e-02 -1.0209278282050007e-02 7.7535630839068699e-03  2.2883001823459009e-02 -1.0233632639448141e-02 7.3574608055909435e-03  2.3263116889017891e-02 -8.7459818570171811e-03 8.7473193638872779e-03  2.2323166191153244e-02 -8.2880160606968664e-03 5.9024914187327674e-03  2.2066186320997678e-02 -7.5966135551025389e-03 5.3439699399757566e-03  2.5908803032419270e-02 -1.2102610922135706e-02 9.4395168591781126e-03  2.6622567877504229e-02 -1.1874382651161563e-02 8.8220772619614762e-03  2.7243984215866896e-02 -1.1576767417840741e-02 8.2915662418508295e-03  2.7827930029852583e-02 -1.1223695003462509e-02 7.8100235905655957e-03  2.8435052080582203e-02 -1.0834919964113062e-02 7.3534296251328325e-03  2.9087985823627358e-02 -1.0424361452706728e-02 6.9350740864752439e-03  2.9720285905816494e-02 -1.0010559857021192e-02 6.6902199397525629e-03  2.2998526322370205e-02 -1.6774199031186911e-02 5.9876495572123824e-03  2.3018151916049306e-02 -1.6966963983763510e-02 6.1128957504901953e-03  2.3489941561006207e-02 -1.5950841955642166e-02 6.7346779980521241e-03  2.3595619353649358e-02 -1.5789877712008422e-02 6.0827787989059618e-03  2.3216003425981502e-02 -1.6923317456292095e-02 5.5346715642038196e-03  2.3040324514239919e-02 -1.6674889867799650e-02 5.3874522252489628e-03  2.3727053794773242e-02 -1.5534869286693238e-02 5.5123389945314410e-03  2.3423302715669322e-02 -1.6769139526262702e-02 5.0198964197621151e-03  2.3110297258386807e-02 -1.6469805096075898e-02 4.8579315003690719e-03  2.3882070698944879e-02 -1.5187417627666823e-02 4.9907746130313417e-03  2.3652766002403389e-02 -1.6511366604906236e-02 4.5412970988392498e-03  2.3200516678359998e-02 -1.6161842520081123e-02 4.3672874757571959e-03  2.4054605468543072e-02 -1.4734117681138909e-02 4.4885450925085807e-03  2.3913810605794807e-02 -1.6135556533264664e-02 4.0773679728070946e-03  2.3295574384007742e-02 -1.5739086762237880e-02 3.8908063825557116e-03  2.4209594088670686e-02 -1.4145388518577610e-02 3.9741619400662682e-03  2.4121201043049479e-02 -1.5621480994803087e-02 3.6153341583888611e-03  2.3363530872813839e-02 -1.5182418476725615e-02 3.3972529731474631e-03  2.4292657817596666e-02 -1.3413765313236918e-02 3.4026404250471001e-03  2.4254402141449759e-02 -1.4969493664531711e-02 3.1113923494944292e-03  2.3385445563625210e-02 -1.4492758122664942e-02 2.8503203365898909e-03  2.5204283948507263e-02 -1.1889203306039179e-02 9.1712998891173205e-03  2.5066669041800601e-02 -1.1242683085370657e-02 8.6636556570313071e-03  2.5025759573928285e-02 -1.0605050432787361e-02 8.2403859623317414e-03  2.5031322103327300e-02 -9.9498733408446560e-03 7.8587282826349924e-03  2.5047877136740920e-02 -9.2575039458990017e-03 7.4887633610365824e-03  2.5034273755180449e-02 -8.5067427673577774e-03 7.1104441229028932e-03  2.4906395477061628e-02 -7.6817349509403108e-03 6.7058090038697058e-03  2.5991673440224936e-02 -1.1743976379363507e-02 8.7144720342170919e-03  2.7626918978362506e-02 -1.0151363814324164e-02 9.4502550840956864e-03  2.6822488313085400e-02 -1.0857560464979158e-02 9.3885110908513841e-03  2.7642466693560609e-02 -1.0939700253810903e-02 8.7897201725110098e-03  2.8435594963337241e-02 -1.0272712358979450e-02 8.9034475983539620e-03  2.6795644297606201e-02 -1.1915496313994030e-02 8.1419569034775520e-03  2.8379047937904595e-02 -1.0954605820265457e-02 8.2398258870303772e-03  2.9172291143303549e-02 -1.0339779823851239e-02 8.3904543158254980e-03  2.7525178808973424e-02 -1.2010928004750003e-02 7.6172081019590665e-03  2.9070231641668765e-02 -1.0922584236055266e-02 7.7229508224488366e-03  2.9858453963598899e-02 -1.0372093271934481e-02 7.9050119134887863e-03  2.8221782033060173e-02 -1.2052894058707259e-02 7.1183414263042630e-03  2.9748425228983105e-02 -1.0871937436784161e-02 7.2210171073977527e-03  3.0526087991740520e-02 -1.0393106411918358e-02 7.4332293153824870e-03  2.8919039689385542e-02 -1.2070973501945428e-02 6.6269340838971498e-03  3.0432045471766846e-02 -1.0827766487668110e-02 6.7325472812960925e-03  3.1197906080081050e-02 -1.0422870701488505e-02 6.9663099362498654e-03  2.9607211330920445e-02 -1.2082357512448785e-02 6.1427389528021705e-03  3.1128911682666547e-02 -1.0818753977508398e-02 6.2779701408555329e-03  3.1899569423