<?xml version="1.0"?>
<VTKFile type="UnstructuredGrid"  version="0.1"  >
<UnstructuredGrid>
<Piece  NumberOfPoints="939" NumberOfCells="4031">
<Points>
<DataArray  type="Float64"  NumberOfComponents="3"  format="ascii">1.459519172596309 3.061838570054322 0.6871824130970593  1.576014826703023 3.152956796384211 0.7008227948550416  1.578738241411982 2.990186213600515 0.6993089767775296  1.588031423029348 2.984078940113915 0.620181467333457  1.585304694452062 3.158702705740909 0.6198154149700148  1.46721282107987 3.062044925704327 0.6060960877038103  1.59721209909995 2.978129943865716 0.5410622744805599  1.5944343668359 3.164563856731659 0.5388470787355815  1.474752093509605 3.062422072998904 0.5250645027852928  1.606332294409322 2.972256815180053 0.4619611967867928  1.60347310749342 3.170475849199104 0.4579259417311525  1.482194763637869 3.062895192933043 0.4441033002526656  1.615423179146113 2.966383147379424 0.3828855245723903  1.612498452742445 3.176384797777566 0.3770553818289006  1.489594064273129 3.063375391496879 0.3632152078499788  1.621587309890372 3.182254205140319 0.2962360086631899  1.497040938046472 3.063815742081765 0.2824061036779062  1.624561070962734 2.960456284164653 0.3038671278729428  1.630878192951785 3.188000576440264 0.2154749095892732  1.504714817247737 3.064087886890788 0.2017075004232285  1.633876006992873 2.954384239287356 0.224924378120287  1.453103192670118 3.17981040572878 0.6885253650933235  1.460952112872602 3.186926497334646 0.6062633195015584  1.468586964976024 3.194192524948227 0.5241178102496131  1.476124685654216 3.201525834251568 0.4420709589944283  1.483649852090861 3.208846479131918 0.3601170403319648  1.491244332509694 3.216123780258954 0.2782625805567284  1.499084131821814 3.22326391029051 0.1965310177519601  1.47782825222305 3.275787544138191 0.7072463861884574  1.592841893688398 3.289021597829874 0.7200519983891898  1.600897335967947 3.304285378637655 0.638862166253538  1.486294378545164 3.292685310668484 0.6258815458732946  1.608753078669304 3.319616494043527 0.5577470692652318  1.494517296567375 3.309682129916613 0.5446479428074001  1.616520932363749 3.334969481163076 0.4766994836012057  1.502645310061151 3.326713792363225 0.4635224952131901  1.624296526117059 3.35030157927469 0.395714821214556  1.510773374414775 3.343723843642977 0.3824975392461039  1.632150143442529 3.365597740833264 0.3147916906113594  1.518991228582094 3.360683849763798 0.3015633253575761  1.640196824327946 3.380804814454636 0.2339253452782223  1.52744366820333 3.377524082773816 0.2207105777393758  1.422395144214804 3.680258968272929 0.9070524757517454  1.558033775244814 3.721383558317333 0.9578997782435513  1.538049403530313 3.637201597125728 0.8737044209983459  1.541514816013294 3.689615711187218 0.8077591668007601  1.561338887984283 3.78038481052084 0.8990019177668975  1.424433495969989 3.737131520407196 0.8445260720853567  1.426226131541385 3.793915336216196 0.7821550150097686  1.564392597706515 3.839288894145079 0.8402629297803771  1.544724639607016 3.741963849342418 0.7419879986594289  1.567297339142472 3.898083998893522 0.7816455418054159  1.427847476988467 3.850546446138207 0.7199552406616893  1.547794967873007 3.794203168828903 0.6763323457308585  1.57014982967687 3.956751950874259 0.7231342660990886  1.429462342779694 3.907071637602129 0.6579253968996179  1.550863392651433 3.846353817279249 0.6107984750600299  1.43122354338561 3.963466722781981 0.5960231046808284  1.573109499448191 4.015308209569227 0.6647385915107729  1.554053893259048 3.898419183265155 0.5453636078169591  1.433349847814561 4.019663278924696 0.5341548732482251  1.576354272493038 4.073705257530133 0.6063469866303924  1.557522913707922 3.950345200488883 0.479955643751196  1.111265221849751 3.232740712731668 0.6735517824658797  1.221922271876871 3.238141579160428 0.6779042551160143  1.220719136260481 3.112636788427636 0.6679298969398517  1.227358992098113 3.118253162497927 0.5837433650881658  1.225498925427884 3.252688746435191 0.5933307074572077  1.112897951450676 3.250326736713598 0.5880634550040958  1.233711006964963 3.124129488878173 0.4998160508270735  1.228803595689214 3.26739347514548 0.5090298718802651  1.114288285138638 3.268085414866182 0.5029039221922916  1.239924082157253 3.130112714510154 0.4160971185045384  1.231983791581921 3.282148976314551 0.4249617391670398  1.115511936286229 3.285899338446514 0.4180332837274168  1.246092130819786 3.136106189876704 0.3325619713142538  1.235154619627522 3.296874778203386 0.341106948275488  1.116692546168505 3.303664474426167 0.3334457885461357  1.252322332819381 3.142035777158432 0.2492020188512535  1.238423170829418 3.311529283106511 0.2574611126952485  1.117946555407505 3.321358428902015 0.2491573711937076  1.258848558953657 3.147731395025794 0.1660459050496924  1.242005371130922 3.325977684717796 0.1740052646364841  1.119596599566643 3.338803638169838 0.16516000782126  1.09202338188457 3.11129432288035 0.6527922740662582  1.095528650225086 3.11793612278481 0.5663749792647912  1.098759967726032 3.12486744850233 0.4802790802050994  1.101830145681382 3.131897334535302 0.3944655367686977  1.104839624448292 3.138926275140585 0.3089196136402687  1.107908234207295 3.145898195849724 0.2236551944859234  1.111341592395073 3.152559793649699 0.1386692362171576  1.685425854365153 3.350630165146695 0.7436079711811807  1.791003107838315 3.409055177193125 0.7753293328457835  1.834507146966439 3.27204818871989 0.7461470554319181  1.844821545598525 3.286625831741492 0.665775384114494  1.799907898364277 3.435519445851383 0.696768437770427  1.694846092020119 3.372650359376978 0.6639341248657741  1.85499565994878 3.301262382235873 0.5854020828743367  1.808637123995267 3.462029902533081 0.6182279074177507  1.704066872740186 3.394720408612738 0.5843032370032699  1.865114752181519 3.315901683445154 0.5050328343003277  1.81729182090537 3.488538846222176 0.5397124911817005  1.713205765316358 3.416797856672642 0.5047221740954844  1.875237013594351 3.330515190361683 0.4246703132357837  1.825952194337523 3.515016517196543 0.4612223104900865  1.722353307634622 3.438847922795738 0.425187678980754  1.885414588075303 3.345080269401221 0.3443122246032941  1.834684548007278 3.541445957630221 0.3827487895590436  1.731580534874798 3.460854679718856 0.3456921517779213  1.89571697820167 3.359565601858408 0.2639524171954055  1.843551906611844 3.567813287159186 0.3042754587006201  1.740989096271194 3.482779054313938 0.2662251988722745  0.863131187756453 3.309152538202909 0.6951791144142431  0.9733413041673884 3.381630496926725 0.7175071616577456  0.9611989101770497 3.296797120112986 0.6938005641578472  0.9616365504987174 3.320652534705044 0.6070969137999584  0.9752978576774286 3.41283966039549 0.6328757049465316  0.8652078719180989 3.333401937401035 0.6065725637635438  0.9617917990470689 3.344620240463928 0.520820707437561  0.9769240980932915 3.444072360332373 0.5486421674582825  0.8669738202978722 3.357780594490527 0.5184103852764304  0.9617102505098157 3.368594868641833 0.4349409159251061  0.978326882046914 3.475249817014657 0.4648089887365807  0.8684518326610648 3.382155757854868 0.4307248757562405  0.9614878776564899 3.392501325991912 0.3494485534891602  0.9796357431328002 3.506306352810533 0.3813700009076298  0.8697377720141749 3.406464673219582 0.3435129029500877  0.9612695130165105 3.416305851841503 0.2643916010860451  0.9810399536687565 3.537182527823846 0.2983595959226025  0.8709708447974478 3.430688476222275 0.2568428412947477  0.9614424567405739 3.439821343131783 0.1798307572458852  0.9828740286153024 3.567709510039175 0.215791122239076  0.872614899012123 3.454596148981837 0.1707635762833835  1.703145240291883 3.207022322842366 0.7207912247970564  1.712480660219532 3.215897571802091 0.639994519437371  1.721655148764632 3.224845648308512 0.5592201569631171  1.730761862633781 3.233820442254114 0.47846967280159  1.739865692521107 3.242784256108814 0.3977456817243311  1.749029417477963 3.251709342563659 0.317047938784694  1.758343514481636 3.260540881581222 0.2363753370962727  1.816099413851447 3.137449445972358 0.564559227841663  1.720931601949665 3.049407173420434 0.5565975929254088  1.730247650586405 3.047666892889283 0.4771675217804212  1.825576988138839 3.141245387008985 0.4842933983393024  1.739547789265109 3.045920080054465 0.397745707801971  1.835052316183948 3.145025775755661 0.4040295673955085  1.74889361433859 3.044124927090142 0.3183472809431035  1.844573648498961 3.148755786318619 0.3237738238733745  1.758379423231052 3.042203940897513 0.238986881463887  1.854212347885775 3.152378790677421 0.2435263113879207  1.702086107185202 3.053091224305107 0.7154475771335317  1.665872241499502 2.894468031381832 0.7253648671609086  1.67584212685523 2.881295521789381 0.6491542247650381  1.711558584541503 3.051192702824976 0.6360245762765874  1.685745963155584 2.868247621787911 0.5729011411555373  1.69561544221755 2.85526555799796 0.4966317416071236  1.705472440947529 2.842287462173736 0.4203678205110984  1.715356131169395 2.82924551018347 0.3441330959955716  1.725366641125843 2.816057608272785 0.2679540496988503  1.970099338095955 3.432071381524967 0.5433394207896276  1.980230550164014 3.454323282618494 0.4637733211402917  1.99041057837402 3.47652514293824 0.3841965552789378  2.000676357579905 3.498665714710595 0.3046042377900138  1.666743351624876 3.76838351041185 1.008434319868907  1.772688554703636 3.724146192109664 0.9754291018705841  1.661894835665006 3.677368910440511 0.9199199957651831  1.667655951498661 3.732799205618769 0.8575831588872125  1.780098138473904 3.783123441039283 0.917239176366353  1.672232594728891 3.831281859079667 0.9546428853470859  1.673160013967978 3.788182181256614 0.7953710288354926  1.787269642885295 3.842079487202289 0.8591444934551473  1.67746672802005 3.894123958177911 0.900962853627758  1.678534737084288 3.843494285577987 0.7332497765940073  0.7539915315759323 2.870926284642188 0.6611085234823647  0.8876137850008619 2.959087411096921 0.6518308553544925  0.87381893242740
[...]
<PointData  Vectors="f_16"> 
<DataArray  type="Float64"  Name="f_16"  NumberOfComponents="3" format="ascii">9.3002168953312328e-02 -3.1536935508479579e-03 -2.5005837058197406e-03  9.2171267231809392e-02 -3.2913801038523803e-03 -2.5848877308547150e-03  9.1986501589314096e-02 -3.8384908735066871e-03 -2.4540397425808036e-03  9.2059281990636635e-02 -3.9193253668969984e-03 -2.7646526529808931e-03  9.2264643558832696e-02 -3.3296775365371368e-03 -2.9157056632834895e-03  9.3064614068199145e-02 -3.1945199133222341e-03 -2.8442482946104807e-03  9.2087972544475594e-02 -3.9787750304661734e-03 -3.0726564386113044e-03  9.2314306396844889e-02 -3.3428370731778969e-03 -3.2277267158933158e-03  9.3096308769615471e-02 -3.2162112709271792e-03 -3.1630299105006449e-03  9.2104298063255360e-02 -4.0277727152762000e-03 -3.3786000570424847e-03  9.2349930035631148e-02 -3.3445492796713981e-03 -3.5266293099289847e-03  9.3118089886364330e-02 -3.2276700235047409e-03 -3.4639416609988484e-03  9.2127121411241755e-02 -4.0736137341013633e-03 -3.6798251163161371e-03  9.2388296491571084e-02 -3.3420462331749420e-03 -3.8135053493563329e-03  9.3146322464379927e-02 -3.2329080153772893e-03 -3.7490693139415419e-03  9.2445758503703138e-02 -3.3405633385464465e-03 -4.0880672560046618e-03  9.3193321838690543e-02 -3.2347379251242195e-03 -4.0182524021952163e-03  9.2173163271927011e-02 -4.1203932936991197e-03 -3.9744329787106403e-03  9.2538800823142406e-02 -3.3425647635798132e-03 -4.3456040910049669e-03  9.3269392424239650e-02 -3.2313833817241189e-03 -4.2694376050539393e-03  9.2255152963524586e-02 -4.1620242813331923e-03 -4.2435043060528007e-03  9.3185825124300584e-02 -2.7667229138192912e-03 -2.5597316792697442e-03  9.3248070488795659e-02 -2.7737825277216062e-03 -2.9133557018767766e-03  9.3282790962613688e-02 -2.7660848876991766e-03 -3.2286092270204184e-03  9.3310009269133840e-02 -2.7498091792800541e-03 -3.5217288292305853e-03  9.3342828117859933e-02 -2.7291013808180657e-03 -3.7969040125230705e-03  9.3391063303042907e-02 -2.7057236109003092e-03 -4.0552895503399777e-03  9.3458018388902178e-02 -2.6835426884652819e-03 -4.2779796670665829e-03  9.3104048142706675e-02 -2.5630367615580747e-03 -2.5660888768648474e-03  9.2235458492615136e-02 -2.9289060797363974e-03 -2.6296333024872286e-03  9.2344449656665217e-02 -2.9114176991314198e-03 -2.9662909987133467e-03  9.3185050606703707e-02 -2.5297925738606156e-03 -2.9153510202384256e-03  9.2422445085976038e-02 -2.8771421564352329e-03 -3.2710601916658760e-03  9.3234662798288126e-02 -2.4860377835062173e-03 -3.2250492572253424e-03  9.2486951376293980e-02 -2.8354973828681627e-03 -3.5557332156521005e-03  9.3275598681927724e-02 -2.4371724747302551e-03 -3.5077179572735699e-03  9.2553022196302348e-02 -2.7914531772539855e-03 -3.8241064211189829e-03  9.3320622910161757e-02 -2.3865294065447493e-03 -3.7685433700487270e-03  9.2633501280561747e-02 -2.7481110724042689e-03 -4.0777461951854409e-03  9.3381190886389187e-02 -2.3366300178683276e-03 -4.0079605055614639e-03  9.2734916744541082e-02 -2.7090167269864600e-03 -4.3100087559690674e-03  9.3476832526440914e-02 -2.2877966672297206e-03 -4.2309600617895706e-03  9.4182464153923340e-02 -1.3308064187333053e-03 -1.9812338487543001e-03  9.3272517028203258e-02 -1.6093563091746457e-03 -1.9928266119383893e-03  9.3281364493419769e-02 -1.7424962903793834e-03 -2.2241123999713610e-03  9.3425778530580372e-02 -1.5248721512675471e-03 -2.4751832497940233e-03  9.3447077663705011e-02 -1.3623026639067047e-03 -2.2018194239489509e-03  9.4291370020052001e-02 -1.0912570570372681e-03 -2.2022135605369664e-03  9.4425713667920089e-02 -8.8010658838054109e-04 -2.3884491204082250e-03  9.3633432539284162e-02 -1.1449403335793060e-03 -2.3739363943010286e-03  9.3582252353601181e-02 -1.3308959527747908e-03 -2.6815658882922647e-03  9.3823173720196662e-02 -9.4744385763626470e-04 -2.5171330032137977e-03  9.4570523242797272e-02 -6.8617549377959612e-04 -2.5459025801497863e-03  9.3740878804591393e-02 -1.1513096930705581e-03 -2.8584481388179489e-03  9.4011608064433996e-02 -7.6545060366440523e-04 -2.6376626919339800e-03  9.4717800698158869e-02 -5.0504328635727030e-04 -2.6799096991669373e-03  9.3898699896011906e-02 -9.8250545247985767e-04 -3.0121815531411358e-03  9.4860472339851287e-02 -3.3421673533913266e-04 -2.7942077690811776e-03  9.4194210184574037e-02 -5.9796316741735772e-04 -2.7382973002651767e-03  9.4052656766558024e-02 -8.2459829829222670e-04 -3.1454436085143122e-03  9.4985536047228411e-02 -1.7329354621098300e-04 -2.8875727551969459e-03  9.4365399659808155e-02 -4.3951715848013391e-04 -2.8271430395955658e-03  9.4196322655567960e-02 -6.8454116070883891e-04 -3.2560174944050624e-03  9.5893590940195575e-02 -1.6099034119917179e-03 -2.0973094236619752e-03  9.5075080085907815e-02 -1.8899030341027264e-03 -2.3078027633319852e-03  9.4924997530726224e-02 -2.2202605028437093e-03 -2.3202386793964788e-03  9.4907078494011629e-02 -2.2069464000690946e-03 -2.6969725074770996e-03  9.5035920892297635e-02 -1.8280742177021797e-03 -2.6716988606349493e-03  9.5803904456517111e-02 -1.5300016506540743e-03 -2.4536548089305059e-03  9.4873865430780455e-02 -2.1929691123183763e-03 -3.0275046393462663e-03  9.5022698308264472e-02 -1.7690546252126513e-03 -2.9833313918419878e-03  9.5762248799773131e-02 -1.4600005542995649e-03 -2.7593350245677453e-03  9.4847507365777628e-02 -2.1754553268887415e-03 -3.3235277499095088e-03  9.5023549463514115e-02 -1.7105534872723777e-03 -3.2621371838734976e-03  9.5746755323392427e-02 -1.3902683767149223e-03 -3.0325136712948380e-03  9.4832242847578213e-02 -2.1528375844567633e-03 -3.5932668043611254e-03  9.5032675281295775e-02 -1.6496123911381539e-03 -3.5160111855291921e-03  9.5742229741666629e-02 -1.3180590285085585e-03 -3.2818092097855779e-03  9.4831057411490532e-02 -2.1247418232338937e-03 -3.8380757177221029e-03  9.5043301507628464e-02 -1.5843596702641042e-03 -3.7464128261136477e-03  9.5733117370200627e-02 -1.2417317670683718e-03 -3.5112142828929230e-03  9.4858278322475578e-02 -2.0888404215050164e-03 -4.0572576310237852e-03  9.5040034025993425e-02 -1.5142349161060568e-03 -3.9539882910223610e-03  9.5692549124753390e-02 -1.1596546149982118e-03 -3.7147048001967510e-03  9.5918674470834103e-02 -1.8476725620524331e-03 -2.1314345809841252e-03  9.5829478650458100e-02 -1.8120539614124831e-03 -2.5116382636143457e-03  9.5763678965612054e-02 -1.7862357002298016e-03 -2.8307702765414931e-03  9.5721618731656577e-02 -1.7573153511978182e-03 -3.1186681385708009e-03  9.5693123121481094e-02 -1.7223950732037873e-03 -3.3844413703115624e-03  9.5668275076727538e-02 -1.6804230305208180e-03 -3.6285170188068102e-03  9.5634317429776641e-02 -1.6297810389051318e-03 -3.8370509336578076e-03  9.1605645647269224e-02 -3.0847171558496447e-03 -2.6650780547404266e-03  9.0900604516866129e-02 -3.3359836731960482e-03 -2.6874729158598682e-03  9.0336114421323777e-02 -3.9816545617668174e-03 -2.6851232515041536e-03  9.0465898063177660e-02 -4.0035179434604884e-03 -2.9915241289493709e-03  9.1069620011101637e-02 -3.2832391140286609e-03 -2.9999016178998941e-03  9.1746925202459043e-02 -3.0525235463137301e-03 -2.9899687640263860e-03  9.0547963916495791e-02 -3.9918619017422219e-03 -3.2963534376893606e-03  9.1202285440727643e-02 -3.2102479143827248e-03 -3.2859594896378795e-03  9.1846935446105685e-02 -3.0010296315709901e-03 -3.2863506022952696e-03  9.0613212499285029e-02 -3.9698605945867448e-03 -3.5967233151107270e-03  9.1317455745124995e-02 -3.1302578495491121e-03 -3.5544085781118663e-03  9.1930942307689417e-02 -2.9416152208475406e-03 -3.5634561372793355e-03  9.0677241999695193e-02 -3.9468461054008959e-03 -3.8915734443191068e-03  9.1429710409286116e-02 -3.0498178052140268e-03 -3.8092284858138870e-03  9.2014798823553304e-02 -2.8814375045014074e-03 -3.8255632645313492e-03  9.0753487524060816e-02 -3.9287782024896890e-03 -4.1815600308441865e-03  9.1549983906304061e-02 -2.9730065787787860e-03 -4.0518922631745955e-03  9.2111694109910366e-02 -2.8249769705254841e-03 -4.0744711730276353e-03  9.0854759916862274e-02 -3.9197539297515377e-03 -4.4681165158151227e-03  9.1683319077846548e-02 -2.9030542114019293e-03 -4.2825444054006420e-03  9.2239489424852009e-02 -2.7753233506437221e-03 -4.3080987119095684e-03  9.7513495684990958e-02 -9.6074264219144542e-04 -1.3863380647119844e-03  9.6871684577219577e-02 -1.0295633052564727e-03 -1.6358918615499863e-03  9.6940450646043147e-02 -1.1586699450294078e-03 -1.6589648600105157e-03  9.6804645966994993e-02 -1.0496177909332580e-03 -1.9860610873701978e-03  9.6765971059761272e-02 -8.9649932315816834e-04 -1.9490840908860806e-03  9.7359355316963686e-02 -8.5509657901764835e-04 -1.7111642457082513e-03  9.6734032985964974e-02 -9.4925421111265943e-04 -2.2806983622931363e-03  9.6710031090856768e-02 -7.7156837909442711e-04 -2.2303346570880195e-03  9.7267165384620852e-02 -7.5277009473383703e-04 -2.0071231314922901e-03  9.6701676516082927e-02 -8.5159428587031397e-04 -2.5444583727101361e-03  9.6687306270428791e-02 -6.5030288703502969e-04 -2.4818947182594824e-03  9.7216132449741394e-02 -6.5078564585720764e-04 -2.2765774692584261e-03  9.6688751740787546e-02 -7.5190582422855312e-04 -2.7841020454348409e-03  9.6683520605747794e-02 -5.2916224698919604e-04 -2.7093696063638147e-03  9.7188183629791244e-02 -5.4616683183707476e-04 -2.5242946733958801e-03  9.6678725159639961e-02 -6.4633843690643019e-04 -3.0058263170139486e-03  9.6687959379294905e-02 -4.0377594015283692e-04 -2.9197832765919586e-03  9.7172040019274264e-02 -4.3584842980772339e-04 -2.7561131619815039e-03  9.6654246506300306e-02 -5.3086494465921666e-04 -3.2255741642907582e-03  9.6696763573136529e-02 -2.7132328376355271e-04 -3.1232783181360888e-03  9.7158822774403436e-02 -3.1639592167277035e-04 -2.9829287028421332e-03  9.1251278705771391e-02 -3.6288170592502131e-03 -2.6290937398263273e-03  9.1364100533253723e-02 -3.6598481195909958e-03 -2.9427951070331660e-03  9.1435190183752943e-02 -3.6658258946255210e-03 -3.2511036446176722e-03  9.1488797938467745e-02 -3.6598285384750709e-03 -3.5514713718192200e-03  9.1543081237913659e-02 -3.6509980324479921e-03 -3.8433301272237236e-03  9.1612806162298818e-02 -3.6439480783842038e-03 -4.1267984229727116e-03  9.1709190773655747e-02 -3.6423224794199555e-03 -4.4040055272033399e-03  9.0576932930373555e-02 -4.3923362869952047e-03 -3.1742175825220705e-03  9.1195936540442404e-02 -4.2678147105411424e-03 -3.0817507193229223e-03  9.1222473933391349e-02 -4.3095622382160418e-03 -3.3931246444279428e-03  9.0612758826084827e-02 -4.4159276723184388e-03 -3.4876216536839709e-03  9.1251857731067698e-02 -4.3498090489147859e-03 -3.7006758772503839e-03  9.0649921755626237e-02 -4.4391386526682506e-03 -3.8001028336305679e-03  9.1298825440165057e-02 -4.3941275330156892e-03 -4.0030164763786361e-03  9.0700338089279256e-02 -4.4682163587368481e-03 -4.1119070872124592e-03  9.1378490298866022e-02 -4.4474377995562652e-03 -4.3043468893963332e-03  9.0769143682849426e-02 -4.5092353381234306e-03 -4.4200753158477159e-03  9.1073247866913551e-02 -4.1371583492501481e-03 -2.4840032130719484e-03  9.1226947639195741e-02 -4.5324064710213418e-03 -2.2517433335584088e-03  9.1266247068946968e-02 -4.6375103545595502e-03 -2.5356163256710553e-03  9.1155199993550151e-02 -4.2169317690906368e-03 -2.7717210579466449e-03  9.1279325083419197e-02 -4.7262504253524499e-03 -2.8332792886786315e-03  9.1281450790863181e-02 -4.8105918747620106e-03 -3.1380742504136146e-03  9.1289044696342816e-02 -4.8961772056091779e-03 -3.4460953793611564e-03  9.1317171109939546e-02 -4.9898604977994011e-03 -3.7545957158265498e-03  9.1371918534343538e-02 -5.0887212216172689e-03 -4.0629201509465697e-03  9.0060938208157540e-02 -4.0394296484604544e-03 -3.6336897644602619e-03  9.0152759168719468e-02 -3.9818525095392876e-03 -3.9159245552413402e-03  9.0252228565593604e-02 -3.9277830351881673e-03 -4.1930328003892273e-03  9.0369052392002588e-02 -3.8816461559938644e-03 -4.4668729667822239e-03  9.2551693674135821e-02 -1.8389193588343098e-03 -1.9528561692850599e-03  9.1663691923044993e-02 -2.3323814721629955e-03 -2.1588499086998576e-03  9.2410126068963858e-02 -2.0488360380743710e-03 -2.2246842031792796e-03  9.2622374362515275e-02 -1.8238376495555487e-03 -2.4545994825003917e-03  9.1932607071317854e-02 -2.1076566599435146e-03 -2.3629105645177886e-03  9.2794096499151213e-02 -1.5823549128825148e-03 -2.1370539647281848e-03  9.2824398244518408e-02 -1.6249559193747749e-03 -2.6447939789339069e-03  9.2181310065213296e-02 -1.9033695950678052e-03 -2.5320005358164897e-03  9.3028488242509158e-02 -1.3648397069513133e-03 -2.2816204991270286e-03  9.3020879230377648e-02 -1.4422489114078703e-03 -2.8069968951247156e-03  9.8139851275939341e-02 -1.3224033690766681e-03 -1.1673931825936267e-03  9.7333245164318807e-02 -1.5826601681236750e-03 -1.6063637128631966e-03  9.7431933452502589e-02 -1.7562807897346156e-03 -1.5220157213048579e-03  9.7191128092985676e-02 -1.8164916907137084e-03 -1.8904522206740089e-03  9.7113973426796035e-02 -1.5955362699276599e-03 -1.9710602561206093e-03  9.7875065068749489e-02 -1.3625815111297640e-03 -1.5194018668345524e-03  9.7027295523954352e-02 -1.8688531612566749e-03 -2.2245992595201275e-03  9.6977940865746015e-02 -1.6045218131514717e-03 -2.2959096338233159e-03  9.7699034224709005e-02 -1.3966840887163769e-03 -1.8456042692503983e-03  9.6910901251049605e-02 -1.9098478023615211e-03 -2.5276238038838298e-03  9.6887666536900813e-02 -1.6056129565491719e-03 -2.5921532309528240e-03  9.7574129597823328e-02 -1.4213628182586932e-03 -2.1564465627252156e-03  9.6814413553152581e-02 -1.5974816285771153e-03 -2.8679307820029970e-03  9.7468199099868480e-02 -1.4361299364829359e-03 -2.4551373651265354e-03  9.6812370154221769e-02 -1.9363271473462984e-03 -2.8069616669173384e-03  9.6734606531334033e-02 -1.5791728631587042e-03 -3.1294321256154058e-03  9.7359197809619519e-02 -1.4424334136672054e-03 -2.7451603386950520e-03  9.6709314816276634e-02 -1.9488629526925756e-03 -3.0716046312919175e-03  9.6628197139406097e-02 -1.5528419828825105e-03 -3.3821618943551245e-03  9.7237626570831473e-02 -1.4402668059657403e-03 -3.0270613477789356e-03  9.6590867627516702e-02 -1.9563646581733118e-03 -3.3497394560508880e-03  9.8210643163149786e-02 -7.2650574238490909e-04 -9.9473063545777894e-04  9.7493429537141810e-02 -8.0909924509561890e-04 -1.3441734152127274e-03  9.7375734866394392e-02 -6.7000708928319577e-04 -1.6557331524279214e-03  9.8043813918038680e-02 -6.2672784910798259e-04 -1.3185579419852835e-03  9.7301619015797952e-02 -5.3664615597100271e-04 -1.9333403776607102e-03  9.7942132091411310e-02 -5.2010541313374573e-04 -1.6186356543149492e-03  9.7261944169326223e-02 -4.0570222316705474e-04 -2.1863329296296424e-03  9.7880623218860777e-02 -4.1080731914676171e-04 -1.8990210675795009e-03  9.7244609661700773e-02 -2.7377145912268498e-04 -2.4187578208540472e-03  9.7841792676626460e-02 -2.9787633959967469e-04 -2.1604605166067508e-03  9.7242902566364545e-02 -1.3734752709181083e-04 -2.6362612668503673e-03  9.7820322873077778e-02 -1.8050833556070245e-04 -2.4032866346563528e-03  9.7255886835149269e-02 4.1518157033737242e-06 -2.8349015667047798e-03  9.7831410582143924e-02 -5.8914037440698415e-05 -2.6415459356200033e-03  9.2165456288130485e-02 -2.5623904921501998e-03 -2.5573405541043687e-03  9.1294454863803109e-02 -2.8905039590931361e-03 -2.5952637449965774e-03  9.1490104039576067e-02 -2.7571359064331412e-03 -2.8970734245211171e-03  9.2321249165204081e-02 -2.4523845856317264e-03 -2.8710474919187170e-03  9.1670544673370657e-02 -2.6213682137758692e-03 -3.1503173310793516e-03  9.2451118022870121e-02 -2.3381813585633725e-03 -3.1473233856359915e-03  9.1837406913876554e-02 -2.4857976863859751e-03 -3.3779244149244009e-03  9.2569195744886840e-02 -2.2249428172831866e-03 -3.3927789024739093e-03  9.1999758494826833e-02 -2.3543609790330627e-03 -3.5866668099329593e-03  9.2684960655625537e-02 -2.1156143446857748e-03 -3.6149894727602145e-03  9.2162816976974121e-02 -2.2305255317119324e-03 -3.7800582545713512e-03  9.2806219794158332e-02 -2.0119433782481155e-03 -3.8187199901015424e-03  9.2325434774441134e-02 -2.1181727695221654e-03 -3.9571092196162205e-03  9.2943329428106014e-02 -1.9129714085150016e-03 -4.0184103801352167e-03  9.2842666948414199e-02 -2.3806099771236109e-03 -2.5646127813471965e-03  9.2958096044089833e-02 -2.2852607065016470e-03 -2.8973558727462419e-03  9.3046055660560151e-02 -2.1923934067868086e-03 -3.1841869813287690e-03  9.3125838009108813e-02 -2.1002530336620738e-03 -3.4421641406393120e-03  9.3207370313016305e-02 -2.0099284510636879e-03 -3.6784443197761521e-03  9.3298770466637884e-02 -1.9227872153211457e-03 -3.8954456662629680e-03  9.3408750860595552e-02 -1.8375983082700110e-03 -4.0890837079911192e-03  9.4801165587078115e-02 -1.3340352373995513e-03 -2.0751687226803943e-03  9.4083926387561204e-02 -1.5129277166485179e-03 -2.1561037639956015e-03  9.3837152177705122e-02 -1.7845101811287680e-03 -2.3750752448377004e-03  9.3924642811603704e-02 -1.6155365716021143e-03 -2.6817450826970663e-03  9.4169929608161382e-02 -1.3040999412606057e-03 -2.4208830537310374e-03  9.4841029731937115e-02 -1.1292101438252395e-03 -2.3448798874183920e-03  9.4014163294556349e-02 -1.4677505419376903e-03 -2.9356773060528170e-03  9.4281361742985140e-02 -1.1180769811306097e-03 -2.6446744616922856e-03  9.4914833407746008e-02 -9.4871762340590748e-04 -2.5748755258513637e-03  9.4107753138139336e-02 -1.3276535481147897e-03 -3.1593874869264614e-03  9.4402379610178486e-02 -9.4570532103261220e-04 -2.8361351448181631e-03  9.5005316217701016e-02 -7.8041770902367868e-04 -2.7734712955584280e-03  9.4203772632518723e-02 -1.1925261985130619e-03 -3.3603010435386904e-03  9.4525251108076691e-02 -7.8325033978654068e-04 -3.0034055202866018e-03  9.5101753099887817e-02 -6.2034728516981977e-04 -2.9474109357435934e-03  9.4300439130881847e-02 -1.0629047950286097e-03 -3.5397898855932825e-03  9.4641982846828857e-02 -6.3010585513242055e-04 -3.1505059925158586e-03  9.5195091340789240e-02 -4.6623035241269569e-04 -3.1010182402983152e-03  9.4396608623069006e-02 -9.4545217590847122e-04 -3.6862568261224970e-03  9.4747323710685907e-02 -4.8745258312115535e-04 -3.2795322132194958e-03  9.5274498198276547e-02 -3.1443369997726948e-04 -3.2410862406492187e-03  9.6138881544203872e-02 -1.1414859776257232e-03 -1.8456059908507278e-03  9.5540907751843082e-02 -1.1216654284617181e-03 -1.9112795019146553e-03  9.5394649652581445e-02 -1.3772004309559075e-03 -2.0755630531412916e-03  9.5363500188258024e-02 -1.2154442226386378e-03 -2.3813014008628982e-03  9.5539277020941865e-02 -9.2695630597775533e-04 -2.1827489718351488e-03  9.6078212255378923e-02 -9.7953262990346877e-04 -2.1414426764675325e-03  9.5393476447293027e-02 -1.0664877207308134e-03 -2.6441937701045881e-03  9.5577409869489358e-02 -7.5130268485594607e-04 -2.4193748931441300e-03  9.6064884059061731e-02 -8.3233186743524989e-04 -2.4066875673915875e-03  9.5447574547944516e-02 -9.2599655006820355e-04 -2.8729025256820718e-03  9.5636743328360779e-02 -5.8731263030883669e-04 -2.6249753247543045e-03  9.6081081571952290e-02 -6.9297935276636650e-04 -2.6404530832561000e-03  9.5509896533100547e-02 -7.8955289928888490e-04 -3.0756886281327264e-03  9.5706067458834643e-02 -4.3061583910343319e-04 -2.8055834180730089e-03  9.6111496348247449e-02 -5.5734165618348064e-04 -2.8484144470408081e-03  9.5565747057927239e-02 -6.5492389998268773e-04 -3.2581121476217556e-03  9.5775698522749544e-02 -2.7683095002147305e-04 -2.9671732415634785e-03  9.6144093735784197e-02 -4.2053056662961819e-04 -3.0377275789851593e-03  9.5585945745220058e-02 -5.1874839803215105e-04 -3.4346926608176129e-03  9.5833715179774556e-02 -1.2150161991226612e-04 -3.1194003804671778e-03  9.6167362264055409e-02 -2.7453352298033616e-04 -3.2186950116230161e-03  9.0615226866492732e-02 -3.3584064922385320e-03 -3.5302142617618178e-03  9.0758087704995258e-02 -3.2547717563379194e-03 -3.7692236124279208e-03  9.0907771861521589e-02 -3.1570537214442086e-03 -3.9976849659944923e-03  9.1075086335788091e-02 -3.0717107090408300e-03 -4.2141765775660601e-03  9.8108654053078267e-02 -1.1760272082845841e-03 -1.1880574515394165e-03  9.7859252095905874e-0