<?xml version="1.0"?>
<VTKFile type="UnstructuredGrid"  version="0.1"  >
<UnstructuredGrid>
<Piece  NumberOfPoints="996" NumberOfCells="4341">
<Points>
<DataArray  type="Float64"  NumberOfComponents="3"  format="ascii">1.018064369749025 2.558121832939007 3.795628070656118  1.163365300516769 2.607902211891847 3.814566004168331  1.029369944752563 2.726232233914455 3.800206817057172  1.023231579576074 2.729622617168813 3.865960027426981  1.157050274935273 2.607550472897475 3.878978314365631  1.011579166252618 2.555324933466658 3.860875235357743  1.017749518639427 2.733343408591981 3.932407506781606  1.151458248870237 2.60739775681565 3.943984594919316  1.005838228229706 2.552752176270976 3.926808492371163  1.012228586142033 2.736968055581434 3.999446234136049  1.145941487565078 2.607119026394114 4.009494226024104  1.000129560149382 2.550036050974194 3.993344866383726  1.006469865228256 2.740413007720365 4.067046369985685  1.14021955165681 2.606671598992393 4.075450829878416  0.9941639348855057 2.547097772204101 4.060442971504783  1.000328156505355 2.743658894096198 4.135214853253823  1.134104676819248 2.606068634707023 4.141834314361356  0.9877589906819283 2.54394304955109 4.12811347849008  0.9936097122836696 2.746662890968773 4.203961169978799  1.127394626239849 2.605356268857567 4.208668614055217  0.9806708056308252 2.540594988185886 4.196457648997789  1.415203054076853 3.170783063917907 3.74117860711092  1.363076166749801 3.040003921966899 3.782221477821357  1.512751845252476 3.042685037436229 3.794933698277688  1.50767742818564 3.060774686162001 3.857072487181711  1.358279343912989 3.057983385078952 3.84463096076686  1.409961276691116 3.194616090098876 3.801712967350987  1.503103662668155 3.079080562332861 3.919483741586785  1.354047998907601 3.076271556687965 3.907369475727268  1.405240814078973 3.218777364223847 3.862498234265572  1.498673794471949 3.097438577304317 3.982160362469655  1.349921396240385 3.094613574744929 3.970471205625133  1.400664228012379 3.24304610221955 3.923585006746772  1.494159202917089 3.115771786969856 4.045079088637481  1.345675578735825 3.112927724614543 4.033907195513039  1.396009962639953 3.267314338642799 3.984963950196379  1.489417519931305 3.134069022275256 4.108218499671167  1.341161541410202 3.131196218275753 4.097651858378842  1.391128552874285 3.291557454981959 4.04662966136745  1.484302911265542 3.152319015475922 4.171557923162681  1.336233242588926 3.149409899407583 4.16169184483311  1.385827713059778 3.315783050558288 4.108613360776077  1.39863670117844 2.899021952226087 3.818279640022923  1.393280120491287 2.911079250004823 3.881668938842076  1.388503957076871 2.923353240452959 3.945340937312517  1.38385499478389 2.935641991197696 4.009383564050207  1.379085228869409 2.947866951342625 4.073731266998758  1.374040718441 2.960019650652478 4.138320313917923  1.368601454066927 2.97210165352847 4.203060988966518  1.164239935648944 2.764574722372185 3.812617108454148  1.029019410138561 2.882794449878584 3.782989292083059  1.023487318997381 2.893340433476352 3.848534576650013  1.158151733738049 2.769860405611902 3.877378991151604  1.018529231106071 2.904336309077907 3.914626932315637  1.152726022164912 2.775422733939126 3.942661915883778  1.013533755237705 2.915306948295035 3.981319597369208  1.147328620929025 2.78091351012746 4.008486613719054  1.008355249182376 2.92615605883178 4.048567723493373  1.14172403392357 2.786266140170003 4.074779465709608  1.002890355411886 2.936844959861299 4.116348313595829  1.135754120905935 2.791465221861948 4.141489953625533  0.9969860246048976 2.947332022753162 4.184651165996282  1.129283383756106 2.796512330188026 4.208555545953035  0.9019705492425836 2.843100053045529 3.776171822523083  0.9029856350930836 2.675232681862525 3.787638145169774  0.8969325967140493 2.676090248419939 3.854571311378896  0.897024855488484 2.850744378338638 3.843419016488873  0.8915901189115529 2.677261770310955 3.922192611530792  0.8926507157203323 2.858836384720724 3.911283557935642  0.8862098162881028 2.678322158743298 3.990524168103725  0.8882017438983552 2.866902811163462 3.979826286336705  0.8805758372230889 2.679159553979043 4.059523802650148  0.883551914797191 2.874828859355635 4.049007336390706  0.8745453180559961 2.679745888520462 4.129153664538855  0.8786278457323869 2.882561486708142 4.11881784845121  0.8679867628038226 2.680036622629195 4.199372995460951  0.8733621062246602 2.890024522486793 4.189297095645277  0.6414271889628171 2.548824920937499 3.760433977841275  0.7695559504996372 2.566339298305332 3.769880103290407  0.6461178011567789 2.694302978228191 3.763173359615359  0.6408222524644492 2.695281641420331 3.833731658864129  0.7645035493543859 2.563519855265223 3.838022302961938  0.6369589564445967 2.544317035346999 3.830823731188595  0.6332713389400106 2.539997806170871 3.901899865288915  0.7602631029561622 2.560930431982929 3.907011773965275  0.6361342090529266 2.696615029348285 3.905253779550614  0.629820737435288 2.535550425833905 3.973790988341728  0.7560725925598786 2.558230628245372 3.976800145205799  0.6315821547568132 2.697794061392883 3.977602630592311  0.7515754947874567 2.555266716980161 4.047329813196275  0.6260486041613731 2.530879612115221 4.046674383441219  0.6268185774373747 2.698820363480039 4.050795713471087  0.7466930122492125 2.552014384240552 4.118648765955801  0.6218798904513971 2.525906083666547 4.120490945046879  0.6217634297978596 2.699682097403192 4.124890799247891  0.6173038593504686 2.52060278969962 4.195152709583335  0.7413342593673948 2.548416226992277 4.191046860960996  0.6164010553492494 2.700248061630283 4.19988956464586  0.9050404326323569 2.980980902250752 3.754921935950953  0.9016814869610175 2.993936468634486 3.821966361000136  0.8988067890828912 3.007426167998489 3.889689861763955  0.8959003086535479 3.020930575180786 3.958024394716537  0.8928576575716568 3.03436217223938 4.02695972284908  0.8896240954165916 3.047645982557771 4.096532653237361  0.8862166236006207 3.060724262133277 4.166905552763379  1.28186911892874 2.920543887005303 3.802488800675285  1.276147099883125 2.933556417663882 3.865910225466018  1.271043335364555 2.946894577864869 3.929825764734306  1.266029329258227 2.960239779180989 3.994159818899102  1.260857736641519 2.973505366881361 4.058884034734627  1.255381555299465 2.986681089476006 4.123978708030809  1.249437754563858 2.999798974665786 4.189456306653406  1.309886859763707 2.662441495791571 3.829226889490261  1.407367190183006 2.771978273637457 3.836670504439849  1.289368784869256 2.806214609867917 3.822759322118602  1.283356042863483 2.813753951408577 3.886770288991558  1.401516668031181 2.777024037971031 3.900614556471321  1.303251204771961 2.663741959847669 3.892993691129722  1.277980026381596 2.821559697084354 3.951327907277597  1.39624727492642 2.782235841957417 3.964922495539934  1.297263493522081 2.665173479410955 3.957210964415377  1.272678033725215 2.829321431402924 4.016308086361982  1.391092190110014 2.787427892769576 4.029562907361464  1.291411346001463 2.666552708143605 4.021834435113515  1.267208751479243 2.836978323982362 4.081658650262648  1.385812073780392 2.792530419355713 4.094492787069353  1.285425960455592 2.667815951897084 4.086800403211322  1.26141577411647 2.844528575142765 4.147349583502999  1.380250834957859 2.797547194411716 4.159676917658188  1.279130955788501 2.668979527726428 4.152064352630209  1.255144277797137 2.851961833327544 4.213333013835565  1.374261202497642 2.80248634383125 4.225090818094711  1.272301992336775 2.670048581370353 4.21761619798487  0.7738767452665462 2.717131692575266 3.773710748391784  0.7692955794896722 2.719738913959666 3.84248312668101  0.7653478878793262 2.722676038707668 3.912088443062909  0.7613383079356575 2.725520488961091 3.98243165164294  0.7570484378864267 2.728203013593877 4.053541657718164  0.7524165138331876 2.730662790794935 4.125386108689956  0.7474338033022505 2.732811576624495 4.19795689915671  1.035395025373298 2.422812686972403 3.786414865972384  1.136071245018158 2.501409568482867 3.808138197858377  1.129188914253737 2.496114446820885 3.872286002817947  1.029053207615244 2.414559287561829 3.850887309636341  1.122972462417839 2.490914097476612 3.937059296426272  1.023461934989335 2.406398596464305 3.915998771253746  1.116823586649951 2.485571638378055 4.002346557188425  1.017916062059912 2.398004288734579 3.98169807125058  1.11045429430675 2.480044974089011 4.068086876992754  1.012120432266307 2.389381554990909 4.047914827843247  1.103672552782728 2.474349929334062 4.134235988062931  1.00588821028664 2.380569624546396 4.114618083863811  1.096302368471002 2.46849597318061 4.200707769645732  0.9990064762554483 2.371583094476017 4.181778755404903  0.5313774608817222 2.588522817379542 3.753429947617837  0.5249612673223071 2.586387826887815 3.825819953461983  0.5191951493889402 2.584428113344195 3.898983802606973  0.5138032959962916 2.582442569140374 3.972981823600637  0.5083344710219966 2.580171892035453 4.047903486078225  0.5025980005617561 2.577777843805872 4.123803779441785  0.4964230345020385 2.575247128320565 4.200706256730732  0.7807991165560793 2.957777046202644 3.75373444009126  0.7776423115576366 2.968547176464244 3.823151688927644  0.7748786020983387 2.979768546024719 3.893196850400905  0.7720185834375605 2.99099727420729 3.963929861522522  0.7690400640934084 3.002166165517016 4.03533854650941  0.7659246472551096 3.013199171057345 4.107426458923547  0.7626814304665656 3.023953485099773 4.18020092464999  0.7753432311091997 3.093108420654882 3.72931793033629  0.7741444611394626 3.110918499028666 3.798507139200509  0.7732773187228041 3.129200978235072 3.868259282715722  0.772320349871871 3.147511926358838 3.938654939865896  0.7713045312671517 3.165829309653225 4.009671118235658  0.7701897775078536 3.184040240808786 4.081322462250952  0.769083612737623 3.20207386967188 4.153553888606143  0.9121167572488811 2.439774996435875 3.775397943455332  0.9064108698413431 2.433036626681398 3.841332863208736  0.9015037689602
[...]
<PointData  Vectors="f_16"> 
<DataArray  type="Float64"  Name="f_16"  NumberOfComponents="3" format="ascii">9.5896121930392805e-02 -3.5281968617341618e-03 2.8870510617016515e-03  9.4671816759754390e-02 -4.3286048216109804e-03 3.9644489848885602e-03  9.5988409353438414e-02 -3.1355365493090002e-03 3.0483972041412204e-03  9.5484855319332249e-02 -3.1455729474639013e-03 3.2862373745470336e-03  9.4113310020465635e-02 -4.3436853608263140e-03 4.2072060974370417e-03  9.5339222627604164e-02 -3.5436160350007357e-03 3.1207096939485828e-03  9.4988677225165047e-02 -3.1154464287646518e-03 3.5456283940673372e-03  9.3557925738798925e-02 -4.3257035621770915e-03 4.4689712297790651e-03  9.4800094503327700e-02 -3.5374928620235660e-03 3.3872875795918711e-03  9.4525842829182014e-02 -3.0772795131314974e-03 3.8254268694431792e-03  9.3030126624805809e-02 -4.3028644068614230e-03 4.7482615522676684e-03  9.4291772571497012e-02 -3.5262527590221790e-03 3.6793492019413189e-03  9.4084161931463642e-02 -3.0327833865429828e-03 4.1259638110196957e-03  9.2519024562718363e-02 -4.2748861461436140e-03 5.0435495695932368e-03  9.3804547287647130e-02 -3.5097087511414106e-03 3.9953071562405769e-03  9.3651624084848603e-02 -2.9833686224705674e-03 4.4479526166100528e-03  9.2014683926532378e-02 -4.2429960760208066e-03 5.3548233060313182e-03  9.3327626642505906e-02 -3.4882987571354137e-03 4.3368167933695101e-03  9.3213010282074849e-02 -2.9317284980035986e-03 4.7887471561518834e-03  9.1514546122374002e-02 -4.2074141284561177e-03 5.6776884390716351e-03  9.2845353304370631e-02 -3.4601377035038670e-03 4.7173362858896149e-03  9.3553316576550402e-02 -3.6966778131309885e-03 5.6040487436335258e-03  9.3688367527520092e-02 -3.9665045866964423e-03 5.3880086191783368e-03  9.2249687272423039e-02 -4.8596476413216702e-03 6.4310238253897064e-03  9.1948726712144338e-02 -4.8370181172687106e-03 6.6946884976243418e-03  9.3352838763724633e-02 -3.9573822349303093e-03 5.6368524914892854e-03  9.3280394936572794e-02 -3.6573241829221284e-03 5.8418956649815695e-03  9.1648184365208898e-02 -4.7604643231935117e-03 6.9261812964286056e-03  9.3004868374846394e-02 -3.8918431635739628e-03 5.8691799680146055e-03  9.3026719960965690e-02 -3.5792642681585860e-03 6.0535920115581373e-03  9.1331819488440560e-02 -4.6361884529776930e-03 7.1319825890038546e-03  9.2644943472714958e-02 -3.7825030838835655e-03 6.0861568393664059e-03  9.2770312358458687e-02 -3.4643449777082072e-03 6.2399004440028801e-03  9.1019903044264258e-02 -4.5040216236006967e-03 7.3226003388302020e-03  9.2301298308076443e-02 -3.6705618495004007e-03 6.2990832687907826e-03  9.2513435363643648e-02 -3.3354438071430451e-03 6.4137324610947502e-03  9.0712516429788947e-02 -4.3801931333307901e-03 7.5002020522890126e-03  9.1962902198082355e-02 -3.5607043525836051e-03 6.5089321925088017e-03  9.2256327709807420e-02 -3.2108116961258827e-03 6.5827879249451861e-03  9.0391211937435753e-02 -4.2619063456417142e-03 7.6620066741449142e-03  9.1617340520081025e-02 -3.4471174703261105e-03 6.7197682847041354e-03  9.1972174970945619e-02 -3.0856752515061592e-03 6.7580024267623372e-03  9.2996648000794532e-02 -4.7744933981054847e-03 5.7415677154817775e-03  9.2598591045017956e-02 -4.7776541147241548e-03 5.9980455944849487e-03  9.2168255603966145e-02 -4.7059073562667371e-03 6.2423438195031780e-03  9.1740592203512480e-02 -4.6080872238930329e-03 6.4816552297052655e-03  9.1335328684075831e-02 -4.5144902452758746e-03 6.7144255027232350e-03  9.0932664192271820e-02 -4.4196603531504652e-03 6.9401358717201909e-03  9.0519396422394427e-02 -4.3221061184511257e-03 7.1588237974469383e-03  9.4903305057304987e-02 -3.8108319053100706e-03 4.0306927548121865e-03  9.6206219716165567e-02 -2.7145401440004961e-03 3.0769277007437019e-03  9.5775381896351902e-02 -2.7234771715930195e-03 3.3167354824213879e-03  9.4401869125702739e-02 -3.8182013295379501e-03 4.2731102381563029e-03  9.5334248194900842e-02 -2.6669787999204849e-03 3.5645046608078017e-03  9.3901375187449579e-02 -3.7784819728789313e-03 4.5273560315324873e-03  9.4927085221185120e-02 -2.6012992839536436e-03 3.8265210807073798e-03  9.3427607726759329e-02 -3.7295143222187766e-03 4.7939980941559303e-03  9.4543677662340189e-02 -2.5293023830449050e-03 4.1036519069399527e-03  9.2970770049861651e-02 -3.6745290805177476e-03 5.0722782099349994e-03  9.4174107720933639e-02 -2.4519864705428410e-03 4.3992805609574318e-03  9.2519190512647384e-02 -3.6149957991488727e-03 5.3620504378200122e-03  9.3805523035325244e-02 -2.3675754233400126e-03 4.7197592159773927e-03  9.2060781879469256e-02 -3.5521401979704778e-03 5.6627470135805439e-03  9.7071993119251354e-02 -2.2072705470414663e-03 2.2305158401702647e-03  9.6905020429198796e-02 -2.5653840618961605e-03 2.1673167210062810e-03  9.6403504792443487e-02 -2.5729246824073414e-03 2.3989886836576347e-03  9.6632382998185218e-02 -2.2096608182135273e-03 2.4680454378268918e-03  9.5926656823374673e-02 -2.5574774086732904e-03 2.6661725182542330e-03  9.6199966532492548e-02 -2.1696662681977771e-03 2.7272691346868607e-03  9.5483964733982837e-02 -2.5315772708826615e-03 2.9613971419835366e-03  9.5801889052132855e-02 -2.1193628641167851e-03 3.0086697504406101e-03  9.5065932595623098e-02 -2.4991906321211428e-03 3.2846379849424427e-03  9.5430133908943338e-02 -2.0614463473153247e-03 3.3121876803579365e-03  9.4663136574934442e-02 -2.4628224395538607e-03 3.6378878715169235e-03  9.5078086308081802e-02 -1.9979300101721571e-03 3.6408473674594388e-03  9.4261414561230786e-02 -2.4262193169767177e-03 4.0264343488369695e-03  9.4740142288985793e-02 -1.9295155784864234e-03 4.0046046471640196e-03  9.8472349757983912e-02 -1.4448164572730985e-03 5.4497637296113482e-04  9.7748566347233279e-02 -2.0637146952415431e-03 1.2660164307924928e-03  9.8536307749548344e-02 -1.3061451330184143e-03 6.4048675831883135e-04  9.8128085182511177e-02 -1.3179374481835928e-03 8.6715652368199187e-04  9.7257088640958334e-02 -2.0772067606404970e-03 1.5025758734501632e-03  9.8042505603011129e-02 -1.4659476087369569e-03 7.8527969931906094e-04  9.7655493198828450e-02 -1.4832508054127957e-03 1.0846456275919359e-03  9.6801249585207846e-02 -2.0841786276522109e-03 1.7884235537488113e-03  9.7768332012781900e-02 -1.3110529716242616e-03 1.1486189256196097e-03  9.7299249023499054e-02 -1.4966631598396095e-03 1.4400025921035265e-03  9.6378757095403916e-02 -2.0849152735243374e-03 2.1141392503654629e-03  9.7444981538079775e-02 -1.2945984519187829e-03 1.4803384673559500e-03  9.5983495473869418e-02 -2.0790608322289288e-03 2.4767151244041367e-03  9.6962542758325193e-02 -1.5032016933139286e-03 1.8459406947710845e-03  9.7142830450130238e-02 -1.2693624641205697e-03 1.8560948466900434e-03  9.5608579778239500e-02 -2.0674873490602128e-03 2.8751220522775329e-03  9.6643027534255757e-02 -1.5029827741446270e-03 2.2942764264477747e-03  9.6853223981701722e-02 -1.2377439583032318e-03 2.2694014490111840e-03  9.6351173176630028e-02 -1.4968572216379052e-03 2.7663838690054365e-03  9.5269681034121687e-02 -2.0501096804951997e-03 3.3372431985589021e-03  9.6576765729671415e-02 -1.2007003404739495e-03 2.7166482171887799e-03  9.7173403030993297e-02 -1.9391934660915209e-03 2.2987032372638314e-03  9.6792279990136079e-02 -1.9418335347563766e-03 2.5466195831008323e-03  9.6396790624987891e-02 -1.8822070006504425e-03 2.8018313252215796e-03  9.6034857744722729e-02 -1.8137566055771534e-03 3.0726282712062189e-03  9.5701025193760988e-02 -1.7384373207253896e-03 3.3600962815967684e-03  9.5391913514679155e-02 -1.6581116090965242e-03 3.6683503171858643e-03  9.5114593733702291e-02 -1.5713908723303228e-03 4.0180387570571017e-03  9.4157617186112541e-02 -3.9592115384898133e-03 4.8739467784813962e-03  9.3757036968457622e-02 -3.9659554159195585e-03 5.1219798884330967e-03  9.3326152421042946e-02 -3.8958506280554728e-03 5.3593505501719797e-03  9.2910531728169266e-02 -3.8071294658197589e-03 5.5983285623509883e-03  9.2513010808217097e-02 -3.7159254008508778e-03 5.8393100954786756e-03  9.2119229823661455e-02 -3.6220839987829473e-03 6.0821427704648417e-03  9.1714283100080424e-02 -3.5237043140261604e-03 6.3221698450002502e-03  9.3373945706019437e-02 -5.1341982120607123e-03 5.0831399463305837e-03  9.2598512196614066e-02 -5.3785734506150143e-03 5.8460697243238888e-03  9.3827020876109585e-02 -4.4460716897744305e-03 4.9647900754701433e-03  9.3358599063903897e-02 -4.4537489659657731e-03 5.2151936863157854e-03  9.2119268386394865e-02 -5.3929475134603328e-03 6.1108823181632195e-03  9.2835645079227078e-02 -5.1504046350402581e-03 5.3279355778534264e-03  9.2864201439265742e-02 -4.3929111516304879e-03 5.4662331880418391e-03  9.1611307809875073e-02 -5.3361924611991570e-03 6.3659952399747382e-03  9.2289104155738877e-02 -5.1184108391407078e-03 5.5835998814325839e-03  9.2400481365044196e-02 -4.3266965660779333e-03 5.7201684789730586e-03  9.1126674525286375e-02 -5.2740192830416401e-03 6.6186606898282216e-03  9.1768402185398085e-02 -5.0801204833979055e-03 5.8462022613682404e-03  9.1950177231519895e-02 -4.2559686340642279e-03 5.9775043818865716e-03  9.0655665140035632e-02 -5.2091229688228709e-03 6.8683134445692538e-03  9.1262085899875597e-02 -5.0376598031750342e-03 6.1128129231215354e-03  9.1502043096991920e-02 -4.1801148535850286e-03 6.2376368008555698e-03  9.0185094001150809e-02 -5.1427763806208889e-03 7.1132494780104492e-03  9.0758453867684732e-02 -4.9921897981347885e-03 6.3834346437057661e-03  9.1045355923292270e-02 -4.1003616412264438e-03 6.4970542146334156e-03  8.9700548047947151e-02 -5.0757033191222017e-03 7.3524632758418243e-03  9.0237743830040545e-02 -4.9462795955132833e-03 6.6645178566920741e-03  9.7807547182225868e-02 -1.8459061630192880e-03 1.3724996290858053e-03  9.7352914447666555e-02 -1.8549236999764384e-03 1.6150011425376260e-03  9.6926114185698728e-02 -1.8394474273383688e-03 1.8931493479310182e-03  9.6534213087507467e-02 -1.8142734301410375e-03 2.2061907031991168e-03  9.6168187885940906e-02 -1.7811648077448211e-03 2.5526697647776488e-03  9.5821659859276070e-02 -1.7418518952627283e-03 2.9321163196768447e-03  9.5495777209458968e-02 -1.7019035965848070e-03 3.3451507650862841e-03  9.5583416091008150e-02 -4.0380982717986985e-03 2.9422913256899929e-03  9.4750965195671319e-02 -4.5006878626151370e-03 3.7149428163482743e-03  9.4152932531204242e-02 -4.5199734124578925e-03 3.9556165757032866e-03  9.4974285004541373e-02 -4.0581045473203963e-03 3.1811871195816491e-03  9.3577528785270966e-02 -4.5198917430532377e-03 4.2185944561565552e-03  9.4398674734473609e-02 -4.0758055232764032e-03 3.4564803817835766e-03  9.3026896372575996e-02 -4.5154361553494862e-03 4.5019009974695268e-03  9.3847177139719656e-02 -4.0909324973946700e-03 3.7578644679733368e-03  9.2491999024613122e-02 -4.5061995389363389e-03 4.8058134302391671e-03  9.3314914096883250e-02 -4.1024441257857926e-03 4.0854389461671293e-03  9.1962599831489827e-02 -4.4930903233080409e-03 5.1309359716875244e-03  9.2796021378420399e-02 -4.1108598648879292e-03 4.4404333788742390e-03  9.1423373242748837e-02 -4.4776905434933158e-03 5.4750862187629996e-03  9.2288771714163054e-02 -4.1177976300729828e-03 4.8254623713952487e-03  9.9034206606070513e-02 -9.1626573473437792e-04 1.8343059114237685e-05  9.8694094398172796e-02 -9.4128806996669615e-04 2.3476168035857078e-04  9.8421278984246630e-02 -9.5315780499219155e-04 5.2738171316748204e-04  9.8175348979286481e-02 -9.5678453197990644e-04 8.8921355317355343e-04  9.7936563041930866e-02 -9.5349690480422728e-04 1.3069802386638306e-03  9.7694424355496912e-02 -9.4220549498106254e-04 1.7680806648185973e-03  9.7443887031018334e-02 -9.2048963788152096e-04 2.2525914064923237e-03  9.7904050884804611e-02 -1.5007310964427008e-03 1.5635217667470814e-03  9.7515956529243469e-02 -1.4917264769067412e-03 1.8130027552554979e-03  9.7147124542014060e-02 -1.4468314459545708e-03 2.0787665452782042e-03  9.6812981398896616e-02 -1.3888025316322508e-03 2.3693772135191314e-03  9.6506988618304798e-02 -1.3217535178058348e-03 2.6857693570249155e-03  9.6226103935355176e-02 -1.2496547110377287e-03 3.0274292809913043e-03  9.5974138428190983e-02 -1.1821742938920780e-03 3.3872696354930293e-03  9.7990710596740332e-02 -1.2716273729599745e-03 1.6239044568772910e-03  9.7651019718682383e-02 -1.2524427186631118e-03 1.8826375272757458e-03  9.7319205825563332e-02 -1.1879042276520691e-03 2.1481036656378965e-03  9.7022987994478310e-02 -1.1111414449399718e-03 2.4324534754830711e-03  9.6755784454694432e-02 -1.0248731492437419e-03 2.7362362053902820e-03  9.6518200491568229e-02 -9.3381542226915330e-04 3.0568232188588717e-03  9.6324852823826676e-02 -8.4172372246993778e-04 3.3789390827609327e-03  9.6620646169438745e-02 -3.1552400604126559e-03 2.1135248257604282e-03  9.6047007742135815e-02 -3.1731661365582142e-03 2.3603606188168898e-03  9.5508813013803623e-02 -3.1907210960461217e-03 2.6439621749564657e-03  9.5000096042812829e-02 -3.2057831015172141e-03 2.9609498522081322e-03  9.4515380822938283e-02 -3.2172426614315722e-03 3.3110640958862237e-03  9.4047735738395824e-02 -3.2241887658837295e-03 3.6957639482554836e-03  9.3595756399819069e-02 -3.2216174121927521e-03 4.1138123834608834e-03  9.6585830411075449e-02 -3.4061849544498955e-03 2.0246891633260125e-03  9.5975840165236581e-02 -3.4278508835610525e-03 2.2727175532885144e-03  9.5413943881547697e-02 -3.4653900600026531e-03 2.5597578110314449e-03  9.4880176309142986e-02 -3.5024230463975886e-03 2.8819046752891798e-03  9.4369776576355618e-02 -3.5372684204509341e-03 3.2399490080503870e-03  9.3875192281015207e-02 -3.5683951976493815e-03 3.6347410633640184e-03  9.3383511176228132e-02 -3.5928506570673379e-03 4.0569899223038657e-03  9.3437128441113876e-02 -5.4902001922146051e-03 4.7274447307035445e-03  9.2822047648318404e-02 -5.5130147282524376e-03 4.9662873981305934e-03  9.2227463007981680e-02 -5.5139035987982260e-03 5.2270423716679467e-03  9.1653923012745206e-02 -5.5084014425312708e-03 5.5004400887475177e-03  9.1092102216454765e-02 -5.4992837970928776e-03 5.7850174599328973e-03  9.0529448042328931e-02 -5.4891817284036292e-03 6.0806424260978617e-03  8.9950102871367565e-02 -5.4819767054756063e-03 6.3917942291128313e-03  9.8625775992500928e-02 -9.1377054194710986e-04 9.6162578232393472e-04  9.8295784982743689e-02 -8.9845554748323338e-04 1.1992102426429487e-03  9.8014706687080677e-02 -8.5016195923431838e-04 1.4649754054354308e-03  9.7771212081561198e-02 -7.7985133605414959e-04 1.7593468086641491e-03  9.7550882242225745e-02 -6.9745341096671195e-04 2.0799927855488635e-03  9.7345185230397022e-02 -6.1129593266447417e-04 2.4192631181905321e-03  9.7143206023988224e-02 -5.3438038702807841e-04 2.7600318941756268e-03  9.9573523157654983e-02 -3.4477540244382823e-04 -7.0140941738373213e-05  9.9544641642653919e-02 -3.7168182245885250e-04 -1.7300052936991623e-04  9.9254613479907897e-02 -5.0908435521121052e-04 3.4949944634441913e-04  9.8998354334626962e-02 -4.9639091618932816e-04 5.8480818857653181e-04  9.9369259393741319e-02 -3.7759965135155055e-04 3.5925247930942851e-05  9.9406081416325245e-02 -3.3287556233693548e-04 1.4255342406584929e-04  9.8813845659726535e-02 -4.4008236165382674e-04 8.5123358848018067e-04  9.9250412426408113e-02 -3.4263508980686782e-04 3.1402020343923836e-04  9.9299742094094104e-02 -2.7734289466686531e-04 4.1011535745831134e-04  9.8659492058115084e-02 -3.5638559503833563e-04 1.1487985031009050e-03  9.9140314840225702e-02 -2.8375143564939004e-04 6.4025803911770690e-04  9.9202774167267208e-02 -1.9635729611135950e-04 7.1519227606069928e-04  9.8511104591600659e-02 -2.5704441675006079e-04 1.4705001682293404e-03  9.9015346323111084e-02 -2.1211777513491969e-04 1.0062977345887849e-03  9.9092117630707341e-02 -1.0076178007992112e-04 1.0503296940429830e-03  9.8358846165096728e-02 -1.5142701981406430e-04 1.8048695574541724e-03  9.8860023042267056e-02 -1.3797377801810773e-04 1.4005239538791780e-03  9.8954587893093818e-02 1.8186913131823905e-06 1.4074158684564992e-03  9.8213765466377903e-02 -4.6178613929333874e-05 2.1509196742689018e-03  9.8695624793910114e-02 -6.5961543486965909e-05 1.7914619344833944e-03  9.8806660609317545e-02 1.0296765901625772e-04 1.7628796780127869e-03  9.5163985026971806e-02 -3.3610616640860312e-03 4.0129369973063737e-03  9.4742958294026125e-02 -3.3750180449369353e-03 4.2541101110609488e-03  9.4297023786387629e-02 -3.3097122782398177e-03 4.4936352788031231e-03  9.3878340166199087e-02 -3.2354336348923564e-03 4.7424166418076046e-03  9.3479151071348215e-02 -3.1550398293660317e-03 4.9991389882574006e-03  9.3086753124501057e-02 -3.0691216862461087e-03 5.2650701807217259e-03  9.2684749048481160e-02 -2.9752723141422532e-03 5.5475973016006286e-03  9.0854265103514631e-02 -6.2449741684299656e-03 7.0605248910137787e-03  9.1397666196454008e-02 -5.5212762190325823e-03 6.9243737528230298e-03  9.0381905045164704e-02 -6.1698353746197912e-03 7.3193104641330088e-03  9.1019471541405592e-02 -5.4437451385046798e-03 7.1719225156610007e-03  8.9927411540333346e-02 -6.0813762924847945e-03 7.5646858172146942e-03  9.0628217990551208e-02 -5.3262562938855770e-03 7.4014555597436476e-03  8.9488407279053550e-02 -5.9948226151614343e-03 7.7964478184271496e-03  9.0255397351501676e-02 -5.2120097174163859e-03 7.6137103243241614e-03  8.9050701302716154e-02 -5.9098577918932733e-03 8.0135498716714625e-03  8.9885869702586746e-02 -5.1027109329097381e-03 7.8111960104703271e-03  9.5016111574604059e-02 -2.6037340812329478e-03 4.4984961226172222e-03  9.4007396711093677e-02 -3.1066225924814149e-03 5.3158557097422341e-03  9.5257668628887501e-02 -2.2108913381533135e-03 4.3434163936865349e-03  9.5041636905911872e-02 -2.1299961590486977e-03 4.5601157463358152e-03  9.3764276979020247e-02 -3.0301339143613500e-03 5.5434837265026229e-03  9.4761362964873766e-02 -2.5604370893912583e-03 4.7321249711061789e-03  9.4833011781696411e-02 -2.0235550063288821e-03 4.7586934566261731e-03  9.3546202231833214e-02 -2.9300697267848237e-03 5.7441080906305755e-03  9.4508235574277386e-02 -2.4801266144135964e-03 4.9458339624272917e-03  9.4650293160588470e-02 -1.9089804981556673e-03 4.9438843075439538e-03  9.3352440989745142e-02 -2.8201671538713568e-03 5.9240098907647381e-03  9.4261210787417338e-02 -2.3739541881122742e-03 5.1413076576777824e-03  9.4484047634031065e-02 -1.7891115591311814e-03 5.1184045115710590e-03  9.3170638673037792e-02 -2.7009280603315666e-03 6.0886902959991999e-03  9.4029785214664402e-02 -2.2577635368971494e-03 5.3320712036327989e-03  9.4326080731057568e-02 -1.6655214758469694e-03 5.2883234944078516e-03  9.2982290869615764e-02 -2.5800144632255871e-03 6.2466984513954715e-03  9.3807337867688384e-02 -2.1402934655454079e-03 5.5242348337773348e-03  9.4170152852986827e-02 -1.5339857432089521e-03 5.4711721955644638e-03  9.2764143223744586e-02 -2.4617564624083142e-03 6.4024504799117636e-03  9.3583635077300539e-02 -2.0188394448804664e-03 5.7327578717491397e-03  9.8969575795801443e-02 -1.1046718256577405e-03 -7.0804026289908071e-05  9.8345954145203376e-02 -1.6563400585997213e-03 5.8114135445744080e-04  9.9014301148219158e-02 -1.0040637848565276e-03 -5.1004024324432986e-05  9.8648018797933529e-02 -1.0388379450903876e-03 1.7222772095497012e-04  9.7877762399651305e-02 -1.6846029545574321e-03 8.2917293270302710e-04  9.8560513229045382e-02 -1.1494381262332316e-03 1.6745308369138078e-04  9.8346030887852515e-02 -1.0737357820327571e-03 4.7795693479678244e-04  9.7458433339833797e-02 -1.7169569698620849e-03 1.1340685643590630e-03  9.8229961006263480e-02 -1.2109109553955877e-03 4.9056404002234229e-04  9.8071697483366679e-02 -1.1074234016734811e-03 8.5635666659776100e-04  9.7071363825137119e-02 -1.7486970369946075e-03 1.4928250569319582e-03  9.7925789255621842e-02 -1.2753791283256727e-03 8.8861217621465267e-04  9.7803701513541480e-02 -1.1380897559737529e-03 1.2936986464813542e-03  9.6705384148497053e-02 -1.7763026930176040e-03 1.9004526905587061e-03  9.7626566713384308e-02 -1.3424497854488101e-03 1.3489393570056232e-03  9.7536638946156939e-02 -1.1637772027264497e-03 1.7743579534712471e-03  9.6357952398009344e-02 -1.7966945287702959e-03 2.3516798529296811e-03  9.7328354783300541e-02 -1.4082549463885891e-03 1.8563659041832372e-03  9.72792851