<?xml version="1.0"?>
<VTKFile type="UnstructuredGrid"  version="0.1"  >
<UnstructuredGrid>
<Piece  NumberOfPoints="970" NumberOfCells="4230">
<Points>
<DataArray  type="Float64"  NumberOfComponents="3"  format="ascii">6.463650721461493 3.596470291605579 3.815613815099348  6.514693652701041 3.684607855587582 3.757997395579885  6.412589110386342 3.687830111799737 3.694709784888746  6.384195164126212 3.735559838424223 3.74174519373683  6.487821410903786 3.731465853434069 3.809339739438575  6.439561081444277 3.644455880912332 3.867387979129496  6.415770651763115 3.692470455571341 3.919177265305211  6.461297890976367 3.778380342688427 3.860666796580569  6.356161714658309 3.783369717657451 3.788845542183626  6.39212114824125 3.740454371605659 3.970964829558521  6.434927269426897 3.825278913592571 3.911978230444661  6.328286211916702 3.831194552911334 3.835979600730119  6.368492144241999 3.788391500765839 4.022742098100755  6.408572554260557 3.872123119234173 3.963269010409621  6.300418158706827 3.878996867194937 3.883131903845408  6.344762283102531 3.836259849953751 4.07449772496233  6.382115434285004 3.918874943031298 4.014510098339257  6.272404573011869 3.926747952435702 3.930271804744632  6.320795664815916 3.884006767424091 4.126216691744807  6.355415118810237 3.965450650812361 4.065665078334353  6.244042745678076 3.97437786696588 3.977362752051372  6.341426721009768 3.56899401801585 3.778843029556944  6.317520762134079 3.618956153816961 3.826787240957032  6.293896441686621 3.668924816681831 3.874826314186038  6.270416869278469 3.718877888988204 3.922909580963723  6.2469733826775 3.768828969175752 3.971012227655307  6.223432167198774 3.818799137081181 4.019120782896769  6.199538343552494 3.868780152301651 4.067229676585769  6.283090195856777 3.790624359418568 3.485384566717517  6.344838924740769 3.733495399309016 3.599404002400371  6.408434503443205 3.834127999802419 3.532332228145272  6.374025481371288 3.882044295050191 3.573016614124848  6.314309796864122 3.782242670982499 3.641410973922465  6.250635836447146 3.840133029902228 3.522502113097883  6.340037445848613 3.930189751954375 3.613772991384103  6.284139327652633 3.831149599916885 3.683525246971407  6.218526453794524 3.889837597256622 3.559722379199852  6.306211915524442 3.978398027201646 3.654591203196887  6.254138088569759 3.88012217420488 3.725700179887015  6.186563881931395 3.93965102068257 3.597024273881936  6.272356730109612 4.026588631135444 3.695439311686399  6.224126115688215 3.929104983726484 3.767921870355071  6.154562770190195 3.989510659035552 3.634395805517965  6.2383027252098 4.074690833422824 3.736273537351519  6.193914369343162 3.978076996165948 3.810155032485379  6.320990636952144 3.874397710943856 3.398926111901971  6.28513964623609 3.923091306890662 3.433484733904657  6.249692323031323 3.972112102614688 3.468118699916807  6.214388556097717 4.021259163549065 3.502838948658067  6.179031559660169 4.070439594834371 3.537622454452762  6.074967792220976 4.118883165620611 3.074009486859115  6.154804755656607 4.128794089849634 3.229044704865526  6.175282490265809 4.194786716790276 3.108605671406667  6.135297895528843 4.246453076269477 3.127507814709163  6.115190369274482 4.179537333619359 3.251345662165154  6.037183531408614 4.170269925243566 3.091288788474767  6.095100925959593 4.297976074981031 3.14644761156953  6.075287172640041 4.230185072737784 3.273681026719843  6.281617776285978 3.646657187276422 3.662621809780461  6.255523373992585 3.697694511933386 3.705322479688196  6.229703894461503 3.748812093112151 3.748172341648022  6.204024792911872 3.799962867124957 3.791095591973557  6.178360861305195 3.851145400659129 3.834063801238517  6.1525407501811 3.902389904286908 3.877069774575673  6.126271339321464 3.95368689741053 3.920124144300029  6.349676734903204 3.466827229027058 3.885540406975466  6.405757786025227 3.529775981859191 3.850288791723207  6.382365517039835 3.578405507849002 3.901870936238352  6.330178254033447 3.518428118543942 3.936354924479181  6.359263681684164 3.62702197216203 3.953497088991631  6.310893135909526 3.569972230810783 3.987235045504442  6.336296754135107 3.675597487880276 4.005139538262781  6.291722261216885 3.621462200632529 4.038139891236418  6.313369514363189 3.724140923072457 4.056780605835915  6.272592951476651 3.672928989778399 4.089043671431184  6.290370370743386 3.772653541560555 4.108412761232541  6.253412575380477 3.724378780521115 4.139942148290173  6.26712020544099 3.821102266640476 4.160040476385259  6.23407014727069 3.77581245345546 4.190842758838409  6.433476433687435 4.154713375006312 3.057309681665361  6.506423901432536 4.219719491521031 3.030031242762612  6.464482187217543 4.215187688615488 2.929425751532187  6.425922985252949 4.274818754513857 2.940131586165983  6.471463833714085 4.282181793995038 3.046349681263517  6.389466869595572 4.208135960502291 3.07516797191653  6.387942801393215 4.33453219918128 2.950704245711454  6.437052379033549 4.344608159454704 3.062501579858102  6.346053070645667 4.261820287238678 3.092945676249151  6.350208742944023 4.394166633622571 2.961231283888904  6.40285802344444 4.40693835152533 3.078595202975915  6.302845395544102 4.315526430754735 3.110697759032367  6.312512927826847 4.453648823688211 2.971737678017228  6.368723809753261 4.469113524072429 3.094650885830136  6.259638617789639 4.369131335916306 3.128449259292189  6.274746619041654 4.512912176164666 2.982239398060833  6.334562728037166 4.531080873777639 3.110693287752059  6.216299537247099 4.422512174574041 3.146194923289874  6.236814409162728 4.571903537847724 2.992799156114263  6.30027972275844 4.592792749006757 3.126758273229456  6.172778415582352 4.475541049790947 3.163908184014494  6.554726901933983 3.566448703191423 3.877567207969727  6.462617565992262 3.480251320225566 3.918268871835763  6.571956937214316 3.496237271486922 3.945126053015287  6.552719760836015 3.543770143821468 4.002715611586033  6.442189772941521 3.529017555537673 3.97285107698832  6.533720698946699 3.613607628869071 3.93336041290616  6.533720640451266 3.591292415066041 4.060216813564906  6.422015938835965 3.577748005814942 4.027410341729159  6.51296901852598 3.66077780280613 3.989091280097877  6.514836739402811 3.638766401669312 4.117646382156114  6.492356260662495 3.707900006844493 4.044766847056182  6.506249119800857 3.830182738744907 3.617648435409911  6.500088226189926 3.90241336779687 3.53720116563983  6.465134402216361 3.950275651388036 3.580814161627535  6.474357862719951 3.877524667003433 3.664470044880315  6.442872363133895 3.925008141433393 3.71130700888269  6.430633255130899 3.998320983175234 3.624434868197777  6.411539402844958 3.972490924886534 3.758156899642612  6.396274598351173 4.046375380121797 3.668080714398241  6.380200423969815 4.01991687165294 3.804994614011227  6.361903541928635 4.094371855583406 3.711714157634735  6.348724796217488 4.067226739516419 3.851777986616019  6.327383566710181 4.142234407648265 3.755292048547791  6.203868887912596 4.122585468932238 3.777039234038875  6.317004925414279 4.114346661789289 3.898439314715724  6.292602204254998 4.189847422505236 3.798762411132592  6.401967210359246 3.626429532361361 4.081949009382984  6.471781691345442 3.754958550769226 4.100396482536626  6.381957343148993 3.675058688722974 4.136466041295535  6.451158468730973 3.801927234471308 4.155976100482961  6.36189771444983 3.723621630316889 4.190960690962587  6.430385287430568 3.848731586220726 4.21152259137914  6.341650927108677 3.772070128054211 4.245431037789309  6.441402145987162 3.929832996240397 3.453960878711816  6.40415698735035 3.978279482375925 3.492507509278248  6.367369575158355 4.026993861570049 3.531101255015312  6.330716468333111 4.075753417513495 3.569747179984351  6.294025270379641 4.124473937464824 3.608406726281966  6.257141917287242 4.173060041884769 3.64703541104895  6.219926971953262 4.22137189072464 3.685586682920305  6.239705513770527 3.554115214546155 3.861480017909975  6.838155018585018 3.839328362967101 3.769180056203329  6.741891241675317 3.86386339525707 3.715014764622325  6.783279613643912 3.755147571689992 3.81569574879296  6.764276040987083 3.801190271109987 3.87629720386351  6.718569165483397 3.911779898421214 3.771839980578431  6.818839907627107 3.886613924704059 3.829624241144246  6.745463790733703 3.847173746299733 3.936695969295646  6.695502022347353 3.959652967427213 3.828509387174267  6.799728877680132 3.933812261897329 3.889858060476915  6.726781986433571 3.893088061399006 3.996948637912988  6.672585372331891 4.007455720970686 3.885043526987618  6.780737333084946 3.980916021524804 3.949926313630206  6.708166247177464 3.938922716239521 4.057079279417544  6.649736840293038 4.055175012131248 3.941459659008732  6.761815192662241 4.027926185159551 4.009856173155846  6.689570255109239 3.984646457283571 4.117099131683765  6.626886351926474 4.10278242788169 3.997763420487582  6.742897795371343 4.074835818062708 4.069647405920596  6.670906627112911 4.030209896705137 4.176991290331312  6.603930022273063 4.150243691223229 4.053926312448088  6.723910816404469 4.121597199436525 4.12926754212936  6.363970064096202 4.009719241353451 3.254027389411394  6.442624269650574 4.07453877195851 3.247325149155052  6.398311943906991 4.088153344788501 3.138887810086482  6.35533916442365 4.139417691320068 3.161136725922225  6.402682992190459 4.126593200721786 3.277180696115711  6.324255990243751 4.060251224848655 3.282494783079351  6.312847026178038 4.191072690171663 3.183381680612439  6.363173117749771 4.178924697670035 3.307034172096028  6.284959895642553 4.111165539523889 3.310989379201887  6.270532037310002 4.242830479216505 3.205637250282797  6.323821760572169 4.231309052985784 3.336898230124316  6.245762742301367 4.162177016318629 3.339558114562721  6.228207642861826 4.294538655127353 3.227907489114886  6.284462076968439 4.283620942906397 3.36675677392444  6.206503887534309 4.213163491800529 3.368162058790197  6.18572694077299 4.346060215489539 3.250178893080579  6.244984976428173 4.335752088953947 3.
[...]
<PointData  Vectors="f_16"> 
<DataArray  type="Float64"  Name="f_16"  NumberOfComponents="3" format="ascii">4.6458399146392465e-02 -1.3025933917965143e-02 1.4647201516652615e-02  4.5699685057800317e-02 -1.2237015657832258e-02 1.4206154857700408e-02  4.7278214840076910e-02 -1.3596997354659315e-02 1.3524147206204882e-02  4.6165111960247383e-02 -1.3638491169259307e-02 1.3153763124532333e-02  4.4636670752362287e-02 -1.2178113758197840e-02 1.3957765445692992e-02  4.5432108254856829e-02 -1.2904272082052110e-02 1.4391849627627651e-02  4.4549063063284565e-02 -1.2773206396740164e-02 1.4150063853652089e-02  4.3730911192047257e-02 -1.2110206737308001e-02 1.3713972465681212e-02  4.5192407049968776e-02 -1.3637784891239275e-02 1.2825678052062084e-02  4.3739823737927092e-02 -1.2642301633447711e-02 1.3903949327525747e-02  4.2903911955970576e-02 -1.2047559799388046e-02 1.3455489147588352e-02  4.4297701457200411e-02 -1.3618463989486924e-02 1.2513225319300363e-02  4.2943964103364582e-02 -1.2522358072789916e-02 1.3640349492195607e-02  4.2092586785529296e-02 -1.1999089960950688e-02 1.3171754090508659e-02  4.3414420569803214e-02 -1.3594624533365116e-02 1.2195276509455774e-02  4.2101401910800279e-02 -1.2429990460341427e-02 1.3346457665813615e-02  4.1242218929950898e-02 -1.1986351711028888e-02 1.2847321458816867e-02  4.2478119664578241e-02 -1.3590552984987188e-02 1.1851868910001135e-02  4.1168300762292470e-02 -1.2405226171315167e-02 1.3028766204977641e-02  4.0310286611770586e-02 -1.2051209018079413e-02 1.2476864508201379e-02  4.1452229775676759e-02 -1.3660547081298479e-02 1.1514491475749768e-02  4.8138794742558104e-02 -1.4692558755069389e-02 1.4146615731879471e-02  4.7094302413513943e-02 -1.4607001818112818e-02 1.3768343618659390e-02  4.6177392428577976e-02 -1.4492455997471836e-02 1.3446056940112153e-02  4.5332094929124711e-02 -1.4361524966765859e-02 1.3147591412313997e-02  4.4500013607005666e-02 -1.4220596751925016e-02 1.2853982626566875e-02  4.3615348932994763e-02 -1.4079760977861988e-02 1.2553720044791810e-02  4.2612011963332926e-02 -1.3972549108741822e-02 1.2259773024627402e-02  4.9348995348223804e-02 -1.5484939824582853e-02 1.1494458580713013e-02  4.8376357943577211e-02 -1.4543368683262243e-02 1.2589024839238272e-02  4.7144737062276544e-02 -1.3339871776720405e-02 1.2072024429965512e-02  4.5978651926299643e-02 -1.3668372859985758e-02 1.1683760844591679e-02  4.7212764369787504e-02 -1.4724681438095901e-02 1.2132213642709501e-02  4.8148764167666468e-02 -1.5819926654700094e-02 1.0990758052773001e-02  4.4931947968674127e-02 -1.3889431535343517e-02 1.1297472323928257e-02  4.6183029311957544e-02 -1.4838848915601480e-02 1.1732322620725433e-02  4.7065926404741144e-02 -1.6067230738335620e-02 1.0547476637616538e-02  4.3957926242276457e-02 -1.4082308754218781e-02 1.0928698442806268e-02  4.5224753899880246e-02 -1.4911756841770461e-02 1.1361937396536971e-02  4.6042348904442414e-02 -1.6258302770809578e-02 1.0137051554092877e-02  4.2991762561495853e-02 -1.4270446794631636e-02 1.0555746502693326e-02  4.4274157991401608e-02 -1.4965647038422345e-02 1.1000130130576316e-02  4.5017655005689904e-02 -1.6421890775433684e-02 9.7436287212418985e-03  4.1986219125298728e-02 -1.4488340807449684e-02 1.0173957480008454e-02  4.3256282466399815e-02 -1.5031958079658844e-02 1.0626407896635803e-02  4.8664354507885740e-02 -1.4641007569350139e-02 1.0883418784293129e-02  4.7433612240148477e-02 -1.5148968948856902e-02 1.0435726111333671e-02  4.6321660578919448e-02 -1.5535254953740314e-02 1.0013973327472064e-02  4.5269976454295216e-02 -1.5863943964764586e-02 9.6123751746789686e-03  4.4219855751792020e-02 -1.6175399472352383e-02 9.2170200153139734e-03  4.7497770825943787e-02 -1.9202515440605153e-02 7.0236409751273966e-03  4.5697901087916007e-02 -1.7267221976532330e-02 7.9347829638253854e-03  4.4785039758320037e-02 -1.6798198686567789e-02 7.5026300645646095e-03  4.3652385474998112e-02 -1.7517462737995430e-02 7.2106101475471109e-03  4.4598640670552879e-02 -1.7893091029709710e-02 7.5733200835599182e-03  4.6308086516871655e-02 -1.9894037248733495e-02 6.6899136761382465e-03  4.2490934766451049e-02 -1.8275899581724209e-02 6.9617947566796437e-03  4.3479417961219992e-02 -1.8547471796224818e-02 7.2642780259895264e-03  4.9107986821192134e-02 -1.5591104789285415e-02 1.2986125689934586e-02  4.8007189410161515e-02 -1.5636288090376701e-02 1.2517759470860304e-02  4.7016656847344303e-02 -1.5630658237279511e-02 1.2115314473376170e-02  4.6088169880559270e-02 -1.5589880839614493e-02 1.1748777950934737e-02  4.5166672531330360e-02 -1.5524415147991884e-02 1.1399636520083689e-02  4.4174074041993569e-02 -1.5445388791773493e-02 1.1055649250859166e-02  4.3070729658622499e-02 -1.5401842130533711e-02 1.0780265384346375e-02  4.7766299440026791e-02 -1.4556032111487927e-02 1.5095207413571180e-02  4.7201244653008040e-02 -1.3837308678352535e-02 1.4878538453191684e-02  4.6210032341246633e-02 -1.3686272751482442e-02 1.4596345774432560e-02  4.6812370085662545e-02 -1.4346574681505804e-02 1.4800472579644851e-02  4.5362475309081239e-02 -1.3530229231158090e-02 1.4341071342725656e-02  4.5971867852254572e-02 -1.4126630687704715e-02 1.4541428844600661e-02  4.4586892509050222e-02 -1.3372278709709556e-02 1.4092677741117906e-02  4.5195229312703762e-02 -1.3905162231263920e-02 1.4295023222171148e-02  4.3825658635271866e-02 -1.3218137986301698e-02 1.3837242789568984e-02  4.4432103472423386e-02 -1.3686255420639301e-02 1.4047698902101493e-02  4.3017828559442153e-02 -1.3076672440350540e-02 1.3563211478730887e-02  4.3629336011648943e-02 -1.3474261365329532e-02 1.3791607519322130e-02  4.2098538970192008e-02 -1.2974716053095980e-02 1.3271780015997159e-02  4.2718705967558092e-02 -1.3278840496625156e-02 1.3532144218208076e-02  4.4462865265299308e-02 -1.1530041295175252e-02 8.4492374153073944e-03  4.2333568240070667e-02 -1.0194922467767995e-02 8.2907292117776442e-03  4.3174903955995332e-02 -1.0625508276069093e-02 7.6791034284890997e-03  4.1966273090538846e-02 -1.1287419746701001e-02 7.7209538198229856e-03  4.1118801498240501e-02 -1.0727702801399170e-02 8.3512657908088768e-03  4.3317142927157173e-02 -1.2394927825497235e-02 8.3860599229907563e-03  4.0756169089433913e-02 -1.1975868137260190e-02 7.6137889313034786e-03  3.9931784929822647e-02 -1.1284437610959513e-02 8.2252610929223462e-03  4.2229939037460439e-02 -1.3176662361682981e-02 8.1629523649357893e-03  3.9636503633359826e-02 -1.2664112457819142e-02 7.5041534051446873e-03  3.8840277035975479e-02 -1.1861014911589456e-02 8.0927077574454997e-03  4.1181049668678596e-02 -1.3941218239076137e-02 7.9267480895765657e-03  3.8540359127955316e-02 -1.3403544317659881e-02 7.4043701785027434e-03  3.7777539464279246e-02 -1.2488394452945183e-02 7.9647119796497929e-03  4.0140243152506777e-02 -1.4723034503612431e-02 7.6967310981720790e-03  3.7428834904878257e-02 -1.4217434046216230e-02 7.3278448610145028e-03  3.6710902079753527e-02 -1.3181273247890698e-02 7.8508622296602510e-03  3.9053676646351253e-02 -1.5564671446043782e-02 7.4762221254358234e-03  3.6281019800512397e-02 -1.5125462302153716e-02 7.2801079061922879e-03  3.5598091611778251e-02 -1.3948892077524727e-02 7.7602436480448313e-03  3.7895767655819652e-02 -1.6540994664068342e-02 7.2584340926718192e-03  4.5247881638308576e-02 -1.2023851048885332e-02 1.5341207683604269e-02  4.6430309028621615e-02 -1.3189126988714859e-02 1.5575848391072015e-02  4.5022891523962300e-02 -1.1971407430799870e-02 1.5948462123212295e-02  4.4158019350627763e-02 -1.1715582881469179e-02 1.5872779926654201e-02  4.5496025867156023e-02 -1.2964339201055648e-02 1.5388819907347244e-02  4.4302880221214612e-02 -1.1811219895530375e-02 1.5215776141281473e-02  4.3427871591662434e-02 -1.1481107850079714e-02 1.5755251126785285e-02  4.4701282290739573e-02 -1.2748458946464257e-02 1.5202533282922837e-02  4.3493296194124689e-02 -1.1615039808000048e-02 1.5060620577624792e-02  4.2764025471195677e-02 -1.1270469490589631e-02 1.5601003558410391e-02  4.2758914364417609e-02 -1.1436234165614019e-02 1.4877705802844579e-02  4.5373004221061747e-02 -1.1959305156498406e-02 1.2856467258851699e-02  4.5136131568723981e-02 -1.1800947221045039e-02 1.2105823313864861e-02  4.4038752392426529e-02 -1.2126573870205668e-02 1.1860778208331615e-02  4.4263834085739764e-02 -1.2127372037830941e-02 1.2591684032609254e-02  4.3284301114829081e-02 -1.2225492281617636e-02 1.2285599304730914e-02  4.3040878284165883e-02 -1.2341288814135487e-02 1.1538393713057760e-02  4.2379396288662337e-02 -1.2319571451905272e-02 1.1973806144938971e-02  4.2107662460234931e-02 -1.2542381546808496e-02 1.1203733352318812e-02  4.1486357910565756e-02 -1.2427311893052042e-02 1.1640268613108441e-02  4.1187868386645045e-02 -1.2759331151592267e-02 1.0852023897867002e-02  4.0559357553999684e-02 -1.2569545715405438e-02 1.1266343420329155e-02  4.0236973379709412e-02 -1.3011814809419183e-02 1.0468757005794940e-02  4.0886339577794334e-02 -1.4812190975330344e-02 9.8271466160625032e-03  3.9563306498802644e-02 -1.2796050970901928e-02 1.0860005906521390e-02  3.9209652971310585e-02 -1.3356156665109293e-02 1.0051569458694256e-02  4.3977226779009650e-02 -1.2543170617992407e-02 1.5005287528938982e-02  4.2043671271618788e-02 -1.1282322510143250e-02 1.4661026307521445e-02  4.3267564707818916e-02 -1.2353565958206789e-02 1.4789855208698540e-02  4.1297911210525291e-02 -1.1167964837567391e-02 1.4401963238562930e-02  4.2518095575897620e-02 -1.2189078501296035e-02 1.4549449596912203e-02  4.0480688186866856e-02 -1.1125863987733608e-02 1.4092799763852512e-02  4.1673187372382937e-02 -1.2078388458729118e-02 1.4280559629119156e-02  4.6032189687185150e-02 -1.2517770082475009e-02 1.1358059166179537e-02  4.4891547105410413e-02 -1.2998879804804558e-02 1.1064443502747162e-02  4.3854796568359299e-02 -1.3350303793564944e-02 1.0708701710906605e-02  4.2868554091272777e-02 -1.3654549232488752e-02 1.0339140026232195e-02  4.1893379627055805e-02 -1.3966335016341945e-02 9.9675029188321888e-03  4.0886014798469178e-02 -1.4316185965647339e-02 9.5898256009057607e-03  3.9777286847856461e-02 -1.4788895655554343e-02 9.2156290171734080e-03  4.7893108688683586e-02 -1.5600687761244987e-02 1.3882869480867770e-02  4.0439883595744991e-02 -8.7722816415731261e-03 1.4275277788299092e-02  4.1603515455052760e-02 -9.3853876783731686e-03 1.3786706136733835e-02  4.1556824066902559e-02 -9.3997669104347419e-03 1.4795006073256723e-02  4.0814799358846229e-02 -9.1191827600445741e-03 1.4832549876853784e-02  4.0771323306513250e-02 -9.2284986794759823e-03 1.3763270986595019e-02  3.9777400024465878e-02 -8.4874127521966970e-03 1.4319708234689322e-02  4.0172195311980810e-02 -8.9018055572234987e-03 1.4773462935055517e-02  4.0040564206762955e-02 -9.1104391348081157e-03 1.3646652510787272e-02  3.9207445648353843e-02 -8.2799952548472354e-03 1.4261800884174683e-02  3.9589590487168952e-02 -8.7339900571772495e-03 1.4636391585939795e-02  3.9373150629127780e-02 -9.0363756114944169e-03 1.3460551957143298e-02  3.8687475392786920e-02 -8.1308371774416622e-03 1.4118939226105832e-02  3.9033514420093542e-02 -8.6101705281681849e-03 1.4427251222652744e-02  3.8732085214400060e-02 -9.0027629019957343e-03 1.3208759610990089e-02  3.8190309166537921e-02 -8.0284654072672965e-03 1.3899062734077431e-02  3.8481651199911981e-02 -8.5307798458054002e-03 1.4143182952756631e-02  3.8092525464043084e-02 -9.0097401134614560e-03 1.2886173678205597e-02  3.7699697055846998e-02 -7.9652827363028787e-03 1.3600392026473163e-02  3.7921718940070938e-02 -8.5015403463201567e-03 1.3771499116984730e-02  3.7440366822903019e-02 -9.0623259588405239e-03 1.2477655153605964e-02  3.7209676344115712e-02 -7.9354772769660645e-03 1.3212636667710699e-02  4.6990301076030881e-02 -1.3392491130874755e-02 9.7156899064380110e-03  4.4970391249367483e-02 -1.1915144683411148e-02 9.7157543166002044e-03  4.5885733131558221e-02 -1.2401726765671106e-02 8.9578432904968610e-03  4.4679775406630734e-02 -1.3293765513958809e-02 8.8054949936910969e-03  4.3800973245343960e-02 -1.2612310050564381e-02 9.5652007304108371e-03  4.5758310719319940e-02 -1.4134686458138467e-02 9.4349022241146108e-03  4.3596105824923889e-02 -1.4036645920895784e-02 8.5286881741835577e-03  4.2731854690264783e-02 -1.3190014264406883e-02 9.2830580216778178e-03  4.4645411288591751e-02 -1.4732426078931594e-02 9.0923832093357387e-03  4.2545013700348237e-02 -1.4737949596876215e-02 8.2241836246905401e-03  4.1694662072436640e-02 -1.3734184991368605e-02 8.9656887195896477e-03  4.3577483162079690e-02 -1.5277592886358386e-02 8.7329206196185213e-03  4.1499810787383816e-02 -1.5435424540747292e-02 7.9268276225751087e-03  4.0664894745115046e-02 -1.4283308068798886e-02 8.6518121579972022e-03  4.2518047939693653e-02 -1.5814497833225236e-02 8.3830275437071188e-03  4.0413041328052991e-02 -1.6181488704329536e-02 7.6466788918067644e-03  3.9595560496967594e-02 -1.4875875242968482e-02 8.3384093607050385e-03  4.1419346285384122e-02 -1.6399668664416795e-02 8.0618306395859318e-03  3.9210399742025011e-02 -1.7062966050175984e-02 7.3569143339520292e-03  3.8435301776011031e-02 -1.5573934909023580e-02 7.9948375190598588e-03  4.0194376129638519e-02 -1.7130509062216956e-02 7.7609965525223907e-03  4.6258698289194648e-02 -1.2690034543611449e-02 7.9273860379441129e-03  4.5010974301410052e-02 -1.3629526811311550e-02 7.8301577957565621e-03  4.3846961924085930e-02 -1.4460936213493961e-02 7.6195783521702514e-03  4.2714807346415744e-02 -1.5257177133626175e-02 7.3975900383140732e-03  4.1595487275923347e-02 -1.6050109604147170e-02 7.1871646743198840e-03  4.0432371199923406e-02 -1.6889434628714294e-02 6.9952447215290980e-03  3.9162941386966299e-02 -1.7872492838855530e-02 6.8179584714892806e-03  3.8535273842677485e-02 -1.3021698467385089e-02 6.8702136703878078e-03  3.7012660869904720e-02 -1.1130251380426729e-02 7.3156354852925258e-03  3.8063156653781530e-02 -1.0550165612417128e-02 7.3123978580824133e-03  3.7379227020159340e-02 -1.3791506853609381e-02 6.8853978771219494e-03  3.5961754615679312e-02 -1.1784006946095219e-02 7.3555458509236933e-03  4.6843693748528488e-02 -1.3173328108234893e-02 1.2957062441428135e-02  4.5711763717800349e-02 -1.3328028414002022e-02 1.2578586892966826e-02  4.4727910458593000e-02 -1.3433604912737583e-02 1.2232201626789688e-02  4.3817016647017676e-02 -1.3514003407776382e-02 1.1893494581641085e-02  4.2913092452537931e-02 -1.3592102067253461e-02 1.1545334901934946e-02  4.1954924734956385e-02 -1.3697780926506056e-02 1.1171281439823749e-02  4.0904648552631304e-02 -1.3906634180615687e-02 1.0812168871873791e-02  4.5569042238653976e-02 -1.7667085257525257e-02 6.9497862846485872e-03  4.4046693925490703e-02 -1.6526598678084242e-02 6.6302862792805492e-03  4.2832149047971148e-02 -1.7355879422648806e-02 6.4749515422701034e-03  4.4395696013450919e-02 -1.8450184237770565e-02 6.6903616524270938e-03  4.1584092813372941e-02 -1.8223593030026707e-02 6.3489818883121513e-03  4.3199414064321352e-02 -1.9267687271589236e-02 6.4763473393496728e-03  4.0217612387671083e-02 -1.9237193937942501e-02 6.2639225129252031e-03  4.1870133176063723e-02 -2.0245335694195975e-02 6.3417500922197242e-03  4.2469501583688431e-02 -9.9319866523874742e-03 1.3092637539425207e-02  4.3856272305549837e-02 -1.0866529705849223e-02 1.2554505063657103e-02  4.3722168604016315e-02 -1.0714912222929970e-02 1.3611778120025557e-02  4.2723176755571676e-02 -1.0703122870571704e-02 1.3467979808674820e-02  4.2817177696621959e-02 -1.1046713807092268e-02 1.2397001273379032e-02  4.1541464797585782e-02 -9.9467480566767918e-03 1.3008576720475139e-02  4.0699192096437520e-02 -9.9483790704523144e-03 1.2825034378045179e-02  4.1865517520326787e-02 -1.1156822005509048e-02 1.2140061361439200e-02  4.1848187021903988e-02 -1.0678832983836305e-02 1.3265035848857250e-02  3.9927909890867960e-02 -9.9818891417509294e-03 1.2588903988508255e-02  4.0988160309270529e-02 -1.1275726021085042e-02 1.1852265575298622e-02  4.1047502508428063e-02 -1.0675813480614282e-02 1.3020290753993104e-02  3.9180246254162915e-02 -1.0049059343055455e-02 1.2300788638848028e-02  4.0132377362195493e-02 -1.1421112007536323e-02 1.1531437751146007e-02  4.0267747819189043e-02 -1.0701645831090364e-02 1.2730830883413258e-02  3.8423181165530444e-02 -1.0156143783312482e-02 1.1952131948459255e-02  3.9256184596046073e-02 -1.1607010520529851e-02 1.1165863381968066e-02  3.9468355578340955e-02 -1.0768320794642553e-02 1.2385503193504505e-02  3.8624674341756676e-02 -1.0893683139625934e-02 1.1968310138737785e-02  3.8326714139433421e-02 -1.1844584648752071e-02 1.0733799616306378e-02  3.7636950565012608e-02 -1.0306761144129583e-02 1.1527575382257087e-02  4.8722901410756532e-02 -1.4761420597860814e-02 9.9635618757299548e-03  4.6806333372786113e-02 -1.3146308328964197e-02 1.0535490720233310e-02  4.5613520240519283e-02 -1.3747752272353669e-02 1.0233679251827617e-02  4.7482679776779828e-02 -1.5461264162042486e-02 9.5555031181319000e-03  4.4528091749135613e-02 -1.4217303541765043e-02 9.8783125114698944e-03  4.6360949813523657e-02 -1.6016072391074766e-02 9.1509694130122634e-03  4.3491848833546197e-02 -1.4627599190583313e-02 9.5096493488358372e-03  4.5291298386284269e-02 -1.6510058953783251e-02 8.7509304608421670e-03  4.2465339561169053e-02 -1.5028785313239007e-02 9.1439907082635375e-03  4.4233440880348168e-02 -1.6986813692261609e-02 8.3637086630229760e-03  4.1407688091154263e-02 -1.5468406222130048e-02 8.7940606248127096e-03  4.3152623969279942e-02 -1.7492456861075770e-02 8.0289364759699739e-03  4.0240798499584909e-02 -1.6034914417997634e-02 8.4692882599381285e-03  4.1938716039124489e-02 -1.8153044119114857e-02 7.7912961349606725e-03  3.8813019037819085e-02 -8.3548710522835575e-03 1.5919484801615848e-02  3.9507464704946524e-02 -8.4842331155975011e-03 1.5517972894778576e-02  4.0707960692656926e-02 -9.1265411228327650e-03 1.5978423712586988e-02  4.0224523905032034e-02 -8.7626178181479351e-03 1.6139491463968137e-02  3.9119507351546311e-02 -8.0935449400047817e-03 1.5678522994866488e-02  3.8583085363891989e-02 -7.9410042853005781e-03 1.6134125262206481e-02  3.9802752258398924e-02 -8.4576300031564775e-03 1.6180874839718005e-02  3.8780027659097896e-02 -7.7767851218993505e-03 1.5706355020616080e-02  3.8386050551505228e-02 -7.5877691683141658e-03 1.6210381713331588e-02  3.9420527839767600e-02 -8.2049294740339698e-03 1.6127300845159297e-02  3.8471420083179407e-02 -7.5187576876385338e-03 1.5633152730358320e-02  3.8209013308357583e-02 -7.2908967656334350e-03 1.6176983512759962e-02  3.9057827986329369e-02 -8.0014175242553148e-03 1.5992581331431090e-02  3.8179064242499949e-02 -7.3115008290376357e-03 1.5472404919315983e-02  3.8042154156453165e-02 -7.0445771101432086e-03 1.6053382513993693e-02  3.8700661986557687e-02 -7.8484963554793542e-03 1.5779721087333855e-02  3.7896291782008595e-02 -7.1512242542166255e-03 1.5227935198258805e-02  4.9280244580826520e-02 -1.5052897181688703e-02 9.0539716861221895e-03  4.8435037815184219e-02 -1.4347456497788687e-02 8.3457681452482110e-03  4.6815219665556851e-02 -1.6621844307908164e-02 8.3150653572520907e-03  4.5933202308569787e-02 -1.6063716103125812e-02 7.8115826672536795e-03  4.1195322415345133e-02 -1.9192176824085243e-02 6.7817168930258487e-03  4.2228134747080238e-02 -1.9358324743019871e-02 7.0502905992445601e-03  4.2805133971802897e-02 -1.0123077881796803e-02 1.4302160978207325e-02  4.1899032040120028e-02 -9.9656081797186574e-03 1.4238886504479051e-02  4.1126372175650676e-02 -9.8464696229261187e-03 1.4099675033303486e-02  4.0420656586276638e-02 -9.7596380109075467e-03 1.3903672235208643e-02  3.9736720096102469e-02 -9.7088862146925935e-03 1.3649110290102318e-02  3.9042038919530231e-02 -9.7017304073293478e-03 1.3327577372998400e-02  3.8314937717700524e-02 -9.7504407352172213e-03 1.2927160455679879e-02  4.3142842182185531e-02 -1.6511596146322752e-02 8.8528123853857093e-03  4.1961393151766190e-02 -1.6976027328039562e-02 8.6069886495350641e-03  4.0082479751653043e-02 -8.9600102976504000e-03 1.6409392788132741e-02  3.6785712071735976e-02 -7.4298176851176423e-03 1.3620306578115780e-02  3.7595485516233179e-02 -7.5936080831291502e-03 1.3302780166440499e-02  3.8151674433