<?xml version="1.0"?>
<VTKFile type="UnstructuredGrid"  version="0.1"  >
<UnstructuredGrid>
<Piece  NumberOfPoints="974" NumberOfCells="4232">
<Points>
<DataArray  type="Float64"  NumberOfComponents="3"  format="ascii">1.172385935605329 1.170670877000794 2.905345123783204  1.271849439395478 1.174956311546243 2.973464673323903  1.18023292466334 1.232557268707721 3.038812381478023  1.165732663522265 1.174772031878601 3.071509572301723  1.254726696761689 1.115654816675656 3.002931065135053  1.15525607548159 1.109438733277689 2.930586268385722  1.151938330554966 1.116281270094662 3.104195701983873  1.238073336925504 1.05573301406014 3.032267133935827  1.138671316885248 1.047589816305495 2.955514927561357  1.138352532351596 1.057321335044054 3.137107759623058  1.221556397154211 0.995397371092731 3.061736026647288  1.122202713036928 0.9852790285018542 2.980528286379398  1.124551126598522 0.9980951454386839 3.170380361273938  1.204928437534281 0.9348238470391277 3.091480288163515  1.105580704640234 0.9226792131971665 3.00581103845043  1.110221675898035 0.9386383759090567 3.203906779182197  1.188002697624563 0.8741060088450991 3.121497408174275  1.08862903896784 0.8598994266924436 3.031432006441643  1.095156693015072 0.8790275479970618 3.237682918716423  1.1704895830192 0.8133061422657917 3.151712246620922  1.071009444133891 0.7970310107013453 3.057372222065397  1.516748129128759 1.111531396133201 2.986713686716622  1.65021948423543 1.053056546824254 2.944545165757263  1.662973070130487 1.14757113414584 3.081629205531259  1.65435839789803 1.093132811403241 3.122898075569503  1.638244017304601 0.9928302350018514 2.97968927883675  1.502333633397684 1.05249577850762 3.021445371123732  1.626472076539651 0.9323222279123783 3.014780014175114  1.488191213100017 0.99311148149533 3.056128678614226  1.646035053730907 1.038463161081098 3.164279356485928  1.474109248828635 0.9335150355269326 3.090918735960112  1.614737803818473 0.8716330051680996 3.049934647232845  1.637808040467981 0.9836659571352075 3.205762389705594  1.459965007975611 0.8737922748439684 3.125873615131454  1.602963109503658 0.8108857185462512 3.085196854114925  1.62955611482859 0.9287723024664158 3.247379927721296  1.445677574310834 0.8140168976815445 3.161017463835732  1.591082940571337 0.7501091579477785 3.120615704717455  1.621181193346621 0.873839730335281 3.289128049705395  1.431117702663647 0.7542209556897475 3.196303852823607  1.579007660223102 0.6893345063017109 3.156221858874864  1.61251617211723 0.8188535037580857 3.33095861629159  1.286745977136369 1.086958188607365 2.757468878113427  1.395986083816539 1.082896059300845 2.863073018215926  1.289256374512996 1.120918791944385 2.878719788752428  1.270494390578224 1.058953520010066 2.903314570088726  1.376398192961301 1.020700276886789 2.888902314631355  1.265347853682901 1.023077771204127 2.773944353579074  1.244122514814403 0.9588114759641211 2.7899227430327  1.357012186883102 0.9580266690392925 2.914469953403314  1.252054802291811 0.9964219969520027 2.927626468902266  1.222874660258519 0.8942609243888213 2.80580396452046  1.33763998089659 0.8951126037590899 2.940065096603997  1.233643790355381 0.9335725884726367 2.951989535038719  1.201522806626513 0.8295192493074467 2.821798665794628  1.318179463518638 0.8320376505043345 2.96582395821567  1.215109789133948 0.8705193926276555 2.976551210067986  1.180013349519232 0.7646734985268326 2.838032487605521  1.298545809113206 0.7688828484729173 2.991813459717194  1.196312769206272 0.8073398296437484 3.001392402004728  1.158267098621772 0.699844408859239 2.854633844850459  1.278667023606723 0.705725832451539 3.018100799685278  1.177085167294428 0.7441203298128893 3.026539325597577  1.531970281855134 1.263602953579559 3.192798834920179  1.673765618126753 1.230583013861255 3.183299116454844  1.669401492717014 1.338317257291405 3.29055867394322  1.522508176276703 1.214278310423969 3.238046623903276  1.172202451008214 1.127480651587068 2.781500017361628  1.153451271066647 1.063477345425582 2.798059431012324  1.135085626939196 0.9989288070939482 2.814067615563263  1.116765703642842 0.9340110085630203 2.830015357132446  1.098288682422198 0.8688509976841374 2.846123939664991  1.07951593528997 0.8035465183575506 2.862504660012583  1.060273144815015 0.7382247515245516 2.879284542880646  1.036081449490681 1.222281990555086 2.942837426191763  1.022140756920883 1.160764614550337 2.96871544789733  1.009066296418526 1.098319078310881 2.994376536474536  0.9961742595414551 1.035314683337766 3.020209418403755  0.9830842468126147 0.9719591241478682 3.046450929654814  0.9694362798068319 0.9083102809077368 3.073058284414779  0.9548254038871711 0.844371193236198 3.099992133451416  0.6490735723838692 1.289625019633357 2.905879784811626  0.6758294360182188 1.256341444520624 2.816185972298205  0.7797093697677291 1.277231763641497 2.937667937376496  0.7673265756539369 1.214473200879135 2.964973304307994  0.6656740377279082 1.189449208932941 2.835268664969684  0.6387078356063741 1.224498380400067 2.931755754442487  0.7559883909303988 1.150674837223758 2.992229292349619  0.6565107261026679 1.121530554028664 2.853985889081917  0.6293832850860791 1.158390928313151 2.95759216757369  0.7449230395583013 1.086163105698395 3.019841939148093  0.6474596968289449 1.052776245127513 2.872988116693045  0.6202872794507041 1.091457137700967 2.983792168614884  0.7335836555912052 1.021064915480851 3.048012124321384  0.6381720527403786 0.983287612673666 2.892344143575147  0.6109724446272637 1.023784147636504 3.010520751402474  0.7214725314941223 0.9553120736354404 3.076646977129019  0.628344734711538 0.9131241076638522 2.912106741639244  0.6009510476720531 0.9552092699966745 3.037698607482866  0.7081847870632793 0.8889460673533383 3.105835885996824  0.6176156091608462 0.8422244027320136 2.932283673552643  0.5897748642990638 0.8855933603956068 3.065493158743963  1.514210999790892 1.037364388431739 2.847380302184158  1.495359642081493 0.9749951952533851 2.876240288398205  1.476622054677772 0.912234696688124 2.904861708889612  1.457864105420991 0.8492818828793789 2.933521012137318  1.439056392366691 0.786222839751338 2.962310075926135  1.420144493966311 0.7231356115891758 2.991299241804172  1.401084967718234 0.6601071548548272 3.020563703102035  1.755646081663905 0.9587160493141154 2.797408756054502  1.861767098077735 0.9910081814072063 2.889430580841764  1.751697228430315 1.01443882057954 2.900832060568987  1.742071967196925 0.952580781508908 2.934218915314679  1.854673293574002 0.928581353522286 2.922446844265931  1.744859756435065 0.8913641219712023 2.821623424404122  1.732688940853797 0.8904763948034083 2.967542839357904  1.847754731472732 0.866033718929292 2.955391509816  1.734252259105655 0.8238904118756769 2.845722047640455  1.723371574712183 0.8282381169706092 3.000891485979318  1.840899617722327 0.8034052452047229 2.988340843475021  1.723703291858754 0.7563342917838058 2.869802813283379  1.714036472096873 0.7659415825740354 3.034312347573151  1.83403847713837 0.7407373873169014 3.021343038920642  1.713142211378126 0.6887402688852133 2.893931119777625  1.704617205399268 0.7036380099532707 3.06783685225408  1.82711713735584 0.6780667868117738 3.054425029377811  1.702506726215883 0.6211454833178877 2.918138978283002  1.695039098208326 0.6413658064938959 3.10147475549689  1.820064482137788 0.6154308612145835 3.087606127649036  1.691723976344372 0.5535779482942631 2.942415559683084  1.050455865240103 1.168892313541996 2.807486224506995  1.034344601790945 1.104782271764936 2.825354806727028  1.018841284119608 1.039983468511589 2.842666747051185  1.003405080395515 0.9747035688983916 2.859986180582521  0.9877706794470464 0.9090844185656158 2.877522324028039  0.9717226307964868 0.8432439020166315 2.89538486454699  0.9550354668392473 0.7773165235199224 2.913677926970816  1.64343095647507 0.9951097813165812 2.827922574595999  1.630201609286912 0.9299368141509647 2.855178583198048  1.617112571798127 0.8644633637686665 2.882327563364925  1.604041487900657 0.7988328609898835 2.909478421817278  1.590935582809335 0.7331347633677705 2.936713563563947  1.577754210564466 0.6674221160636915 2.964085959297995  1.564425270512116 0.6017303707099163 2.991600163719525  0.5494394410031116 1.28219802596427 2.836981305315341  0.5412570544575277 1.214584022829172 2.859561813607384  0.5340793227636405 1.145842984183235 2.88220018370462  0.5270259213992756 1.07621336311553 2.905153456092695  0.5197832783000711 1.005686368764735 2.928448872843575  0.5120982346254184 0.9341638271336121 2.952076181134532  0.5035291497475906 0.8613780634437921 2.976163967105585  0.548942844589221 1.244761493340314 2.711438342737354  0.5425549433298897 1.174232903853278 2.725296047309754  0.5369542379088409 1.102824901884726 2.739029779056144  0.5313201437898907 1.030693286753529 2.753035586943176  0.5254204680819219 0.9577598800437219 2.767201092782225  0.519007565998501 0.8839345651877524 2.781507503930507  0.5119450526453261 0.809026124989115 2.795994654740556  1.048270621048583 1.129972740848121 2.55755577397371  1.054831053723138 1.12720904357844 2.429158330535988  1.155430473753206 1.094612100618359 2.527103438546151  1.133293880402022 1.029680896930252 2.52955064555073  1.036025700979586 1.06179023369951 2.4262810395489  1.029575227672266 1.064316952946096 2.560321117475585  1.111302845582198 0.9646298492666225 2.531214677296662  1.017616458789072 0.9962822438485968 2.422534748124882  1.011254960384294 0.9983956628016863 2.562229518774654  1.089202327607151 0.8994719770736057 2.532650561667712  0.999151765600278 0.9306962737075439 2.418523569257556  0.9928811047009742 0.9322755658298213 2.56391618112737  1.066963668864303 0.8341977146872206 2.534090434438818  0.9804201658846469 0.865067226962994 2.414572586674182  0.9743180997452696 0.8659769755473667 2.565637302684532  1.044577232271364 0.7688447737086868 2.535730310307505  0.9614182644318263 0.7994044667454825 2.410811268133811  0.9554696182547719 0.7995438752377002 2.567569221910833  1.0221
[...]
<PointData  Vectors="f_16"> 
<DataArray  type="Float64"  Name="f_16"  NumberOfComponents="3" format="ascii">9.4910472291793779e-02 -9.8967586288154410e-03 3.1416601505193319e-03  9.3597743719325166e-02 -1.1605132896031187e-02 3.7284616646646152e-03  9.4642410700736521e-02 -1.0078475921336783e-02 3.3856429905985276e-03  9.3380539968097601e-02 -1.0207200433136792e-02 3.4261066430650278e-03  9.2348070364800985e-02 -1.1697799953227438e-02 3.7331671796116284e-03  9.3670301941761597e-02 -9.9631325880687495e-03 3.0845147826824354e-03  9.2221048072889084e-02 -1.0343321620186330e-02 3.4717367808890869e-03  9.1178018539137179e-02 -1.1793977737755616e-02 3.7048081474748561e-03  9.2479313213395919e-02 -1.0059952633692498e-02 3.0075265284183958e-03  9.1116434990639136e-02 -1.0475146648408805e-02 3.5178953712940034e-03  9.0071167498119845e-02 -1.1874215037052866e-02 3.6774866610405181e-03  9.1350953015547312e-02 -1.0157583981431519e-02 2.9565650909573775e-03  9.0023543232193998e-02 -1.0595866379604930e-02 3.5600469864241939e-03  8.8977816512309044e-02 -1.1935584739779959e-02 3.6439228885043421e-03  9.0231490095321679e-02 -1.0251425666911191e-02 2.9151493403860610e-03  8.8898302815610356e-02 -1.0697793038851818e-02 3.5891724514347844e-03  8.7851351254069301e-02 -1.1971196764012006e-02 3.5960580447479563e-03  8.9068379367345601e-02 -1.0333298588811442e-02 2.8772229023314258e-03  8.7690967348779708e-02 -1.0780215575578523e-02 3.6009108412310949e-03  8.6644291066249754e-02 -1.1965720406185983e-02 3.5238579619380566e-03  8.7852129099458165e-02 -1.0408607495055493e-02 2.8569723387690126e-03  9.0129160243942102e-02 -1.5385888563928028e-02 4.7899918806920995e-03  8.8234453916324312e-02 -1.7153496417872133e-02 5.1246484529270716e-03  8.8219340206300373e-02 -1.7068065581258000e-02 5.6209893114873358e-03  8.7255345958474076e-02 -1.7318857691446803e-02 5.8131395869702521e-03  8.7190651578527151e-02 -1.7422621610551216e-02 5.1907329686859153e-03  8.8976739636785263e-02 -1.5580436613909577e-02 4.8776652215912599e-03  8.6195369731530358e-02 -1.7607192031170560e-02 5.1883682494216540e-03  8.7893182288051375e-02 -1.5726407028716020e-02 4.8931429413265146e-03  8.6323126443911519e-02 -1.7513149894275156e-02 5.9291531698841791e-03  8.6859532824885441e-02 -1.5821232651997703e-02 4.8624500391628005e-03  8.5232948889014698e-02 -1.7727094538197589e-02 5.1331535266650064e-03  8.5416045630743356e-02 -1.7661707025071187e-02 5.9845588106307518e-03  8.5846072113023572e-02 -1.5869234450887858e-02 4.7962766432487819e-03  8.4292972961480764e-02 -1.7792883373788242e-02 5.0359424912172568e-03  8.4534057284647524e-02 -1.7764244995721403e-02 5.9939322438153867e-03  8.4829414474085929e-02 -1.5866379908294176e-02 4.6926691386273995e-03  8.3367308632974230e-02 -1.7807490287420884e-02 4.8948080587034176e-03  8.3674967745955980e-02 -1.7818788844797481e-02 5.9612113517968817e-03  8.3790499136764271e-02 -1.5794371341546213e-02 4.5419855573416443e-03  8.2450477087585058e-02 -1.7769342366887115e-02 4.7016575200175287e-03  8.2838958882619176e-02 -1.7817733462597077e-02 5.8839651234773001e-03  9.3583469173624437e-02 -1.1644145996109755e-02 3.2651213735184590e-03  9.1847798605247319e-02 -1.3612096457844050e-02 3.9702200528534118e-03  9.3324816877842887e-02 -1.1881096384281900e-02 3.5905430395652190e-03  9.2097059125566719e-02 -1.1937516894063978e-02 3.5348144866298643e-03  9.0656105828059871e-02 -1.3679191445280360e-02 3.9338331727663987e-03  9.2403755074776675e-02 -1.1609688134161937e-02 3.1344639144858955e-03  9.1234140954541521e-02 -1.1592560266367090e-02 2.9487691249622185e-03  8.9484753878866480e-02 -1.3740422144584940e-02 3.8086452488175762e-03  9.0903383201904331e-02 -1.2004209041568136e-02 3.4206994435922243e-03  9.0099772430077538e-02 -1.1582979024219111e-02 2.7711434915451980e-03  8.8372116940837020e-02 -1.3765433961448959e-02 3.6796838202497496e-03  8.9768523212588491e-02 -1.2054785938652534e-02 3.3221354175958194e-03  8.8984580063535837e-02 -1.1565932132378205e-02 2.6119429825960201e-03  8.7279596171738458e-02 -1.3755733332512642e-02 3.5445686708678011e-03  8.8645623716898062e-02 -1.2087718726811233e-02 3.2265118646331498e-03  8.7832858962903784e-02 -1.1522883520923288e-02 2.4540856542185790e-03  8.6163667005538389e-02 -1.3705566930605463e-02 3.3904533611916580e-03  8.7487245383096726e-02 -1.2086836639358986e-02 3.1247168416100052e-03  8.6662133008656883e-02 -1.1461995173600695e-02 2.3310391112297706e-03  8.4977721403984560e-02 -1.3602607647432379e-02 3.2116271973689223e-03  8.6264348869339327e-02 -1.2045161676629113e-02 3.0188470622310240e-03  9.0012868575239380e-02 -1.5041379167054602e-02 5.3155183577292186e-03  8.8185539236334251e-02 -1.6845892141214232e-02 5.9120702230079127e-03  8.8423551677385206e-02 -1.6194048041613573e-02 6.0743270978367162e-03  8.9005784605387953e-02 -1.5196297953706755e-02 5.5808166815139500e-03  9.5031310946535663e-02 -9.7051076739191489e-03 2.8957140217858823e-03  9.3835980027935237e-02 -9.7091096837865452e-03 2.7609407677541735e-03  9.2649076539523409e-02 -9.7462773020016418e-03 2.6024864544076627e-03  9.1508436329627491e-02 -9.8034126412520021e-03 2.4727372138776790e-03  9.0371581450639227e-02 -9.8639354234157182e-03 2.3634826624354035e-03  8.9207795544143390e-02 -9.9176996977061328e-03 2.2650784424969842e-03  8.8063548662094565e-02 -9.9975238018748230e-03 2.1803393032405376e-03  9.6390631025592075e-02 -7.6275376257956022e-03 2.5505791798478435e-03  9.5175163761209630e-02 -7.7456013999916218e-03 2.5059205349366215e-03  9.4015015173163310e-02 -7.9053454389504570e-03 2.4881015199184650e-03  9.2906035003886084e-02 -8.0850959602943046e-03 2.4994993596969784e-03  9.1802920003987640e-02 -8.2805023887430902e-03 2.5279316667816396e-03  9.0660802557586087e-02 -8.4865706078417844e-03 2.5654409195727469e-03  8.9475663506670328e-02 -8.7213553652836489e-03 2.6087433399456278e-03  9.9344699446685336e-02 -1.8675135660233808e-03 7.2254184828259049e-04  9.9279555731381142e-02 -2.0199229411682067e-03 8.6264280842524846e-04  9.8569312636878598e-02 -3.6453613757252120e-03 1.2972543626675198e-03  9.7544040582135977e-02 -3.7784842213889258e-03 1.2757007679287940e-03  9.8413402284476675e-02 -2.1481789972706902e-03 8.1078555070962250e-04  9.8477794970589005e-02 -2.0156930782936470e-03 7.1022727183451563e-04  9.6589951870929586e-02 -3.9897149646260094e-03 1.3016479179720653e-03  9.7599392454933029e-02 -2.3967555847908919e-03 8.0551159416661540e-04  9.7697370282893076e-02 -2.2764295131813038e-03 7.5809582363005497e-04  9.5689395621756559e-02 -4.2734357350583283e-03 1.3755169524309547e-03  9.6830557342061072e-02 -2.7523259982613789e-03 8.4563296764854357e-04  9.6965953980465897e-02 -2.6448381395258063e-03 8.5796261667599009e-04  9.4791751603859123e-02 -4.6240680746507190e-03 1.4833097199447507e-03  9.6055193818124454e-02 -3.1966773050902753e-03 9.0890133070264001e-04  9.6218239280795620e-02 -3.1036717257287997e-03 9.9632310206058472e-04  9.3856927536608889e-02 -5.0338063779626499e-03 1.6129989579731442e-03  9.5247860819859156e-02 -3.7202590094710646e-03 9.7973315556273695e-04  9.5422983981977280e-02 -3.6365993685056508e-03 1.1537208313282270e-03  9.2846496421134059e-02 -5.5028268434355676e-03 1.7543672978050087e-03  9.4429166195486386e-02 -4.3550246477862932e-03 1.0368966005027027e-03  9.4583812139213408e-02 -4.2373249950925064e-03 1.3082280484462217e-03  9.0066528029018253e-02 -1.5403192843218196e-02 4.3258398538170732e-03  8.8944450072728123e-02 -1.5524149294926910e-02 4.3136510976863841e-03  8.7821301389876608e-02 -1.5610614202220317e-02 4.1934951840545106e-03  8.6759516407254753e-02 -1.5633457651076429e-02 4.0570851384907685e-03  8.5719550160212626e-02 -1.5610614354350938e-02 3.9009148793958236e-03  8.4667378873628032e-02 -1.5540502413117767e-02 3.7126505038880633e-03  8.3575846931823988e-02 -1.5409933479980899e-02 3.4717333862967800e-03  8.6772240175834722e-02 -1.8254433982609678e-02 4.8202984902509767e-03  8.5605535665712523e-02 -1.9363298160915251e-02 5.5307690716822682e-03  8.6941700066800409e-02 -1.8271586573632610e-02 5.2668204316911622e-03  8.6013661100294486e-02 -1.8586632436519219e-02 5.2924127943651741e-03  8.4791728802971755e-02 -1.9698854357655185e-02 5.5377135367166890e-03  8.5837727662420135e-02 -1.8552422811992434e-02 4.7216073655673377e-03  8.5099565309426875e-02 -1.8812212953832414e-02 5.2649982579148222e-03  8.3975951334719329e-02 -1.9949100815082620e-02 5.4959646938647407e-03  8.4899070913615204e-02 -1.8752315521824631e-02 4.5918939306295314e-03  8.4205573307885001e-02 -1.8966401412278708e-02 5.1901947242413739e-03  8.3174637985430622e-02 -2.0132865596670105e-02 5.4116005903149765e-03  8.3980857745496185e-02 -1.8874844857987932e-02 4.4289814049260079e-03  8.3334116938521691e-02 -1.9063966032195352e-02 5.0732280739260978e-03  8.2395078584516099e-02 -2.0261883932964103e-02 5.2857396632090443e-03  8.3085924996564323e-02 -1.8939351583585780e-02 4.2340722144905236e-03  8.2486890545051983e-02 -1.9112491683672014e-02 4.9140716575359527e-03  8.1642247939098953e-02 -2.0343740373081939e-02 5.1192251294871769e-03  8.2216495257360980e-02 -1.8953937780491467e-02 4.0057929640407441e-03  8.1667890504687771e-02 -1.9115256822748335e-02 4.7076791516076711e-03  8.0918944630722911e-02 -2.0385298385210211e-02 4.9087243753259098e-03  8.1373266891415302e-02 -1.8921709846899663e-02 3.7483907717843386e-03  9.6398073104207213e-02 -7.6542940559856014e-03 2.4409055368349521e-03  9.5220563317211210e-02 -7.7038162765543077e-03 2.3192197253102667e-03  9.4060748594074095e-02 -7.7987991291366297e-03 2.2044409777607580e-03  9.2945663888501284e-02 -7.9290107952354038e-03 2.1280754396485278e-03  9.1828561306124518e-02 -8.0816360893157749e-03 2.0772479867055297e-03  9.0678584130550244e-02 -8.2554908635619571e-03 2.0379527335911050e-03  8.9575310855072615e-02 -8.4821730823097779e-03 2.0017891846885435e-03  8.8229946785137139e-02 -1.7057325372535879e-02 4.6344171073821579e-03  8.7184901262676820e-02 -1.7312881849229172e-02 4.5991562594286184e-03  8.6142190905222155e-02 -1.7480500418038631e-02 4.4989754932537908e-03  8.5134691526870004e-02 -1.7571143825368448e-02 4.3583019816362430e-03  8.4152239115141220e-02 -1.7606694376995056e-02 4.1873251872567548e-03  8.3184906035024805e-02 -1.7591021770387041e-02 3.9838468767749444e-03  8.2232169984093745e-02 -1.7526034247836709e-02 3.7382912837997865e-03  9.9718853628704571e-02 -6.9182003390060964e-04 3.4023518984330810e-04  9.9089274085232423e-02 -8.3429630823075418e-04 3.6916183441281685e-04  9.8492793952528065e-02 -1.1372569254697522e-03 4.2843988010117019e-04  9.7927813898363067e-02 -1.5669524686281343e-03 5.2691494458584147e-04  9.7314094668698323e-02 -2.1012518220416172e-03 6.5853542399753838e-04  9.6636086589648729e-02 -2.7118783695635989e-03 8.0325583521182202e-04  9.5954951552925508e-02 -3.4095120667497567e-03 9.5011944127361501e-04  9.9645946796875731e-02 -5.0090253854007810e-04 4.3050161095685571e-04  9.9067273528886765e-02 -6.3863840916832473e-04 4.2488106394601374e-04  9.8503427092563753e-02 -9.4670297238677082e-04 4.2731511687283958e-04  9.7953717796851997e-02 -1.4051021162464665e-03 4.5937571543898668e-04  9.7343676936307688e-02 -1.9736790934406084e-03 5.0166545989091581e-04  9.6698466669104241e-02 -2.6184318818153053e-03 5.3072451706441797e-04  9.6106555614454289e-02 -3.3162860993125091e-03 5.3849228865276847e-04  9.6766864160514554e-02 -6.9145979909344020e-03 2.0609603192186425e-03  9.6816858736722258e-02 -6.5656286488799034e-03 1.8920969437267402e-03  9.5570610267017089e-02 -8.6850995540099819e-03 2.3079348141590854e-03  9.4447416984653657e-02 -8.5464272445651673e-03 2.0714118956858085e-03  9.5732615575193428e-02 -6.4505626356671170e-03 1.6667737982737389e-03  9.5659231928575075e-02 -6.8302689406425070e-03 1.8456187980228800e-03  9.3357314742992914e-02 -8.4503172542084726e-03 1.8576888856073673e-03  9.4699686745563560e-02 -6.4074561641035144e-03 1.4676390427034751e-03  9.4587314420831639e-02 -6.8072274127669637e-03 1.6601236271499512e-03  9.2307210531248088e-02 -8.3924048683215440e-03 1.6517433238753708e-03  9.3697112286127121e-02 -6.4204190466806074e-03 1.2631660356658414e-03  9.3543763172531963e-02 -6.8339714637740316e-03 1.4851699554786950e-03  9.1269619709929750e-02 -8.3618392272039981e-03 1.4390750250546950e-03  9.2716943100329935e-02 -6.4745453985905199e-03 1.0377548319394072e-03  9.2511424355676899e-02 -6.9031110317031045e-03 1.3068756232632833e-03  9.0245647770963014e-02 -8.3501004235575008e-03 1.2106621962664208e-03  9.1773664290212539e-02 -6.5748735396524557e-03 7.7981024344199728e-04  9.1512531657886961e-02 -7.0186095481543391e-03 1.1165676910394823e-03  8.9255545497402167e-02 -8.3747113142981413e-03 9.7310808310751206e-04  9.0911049997313129e-02 -6.7579722319670819e-03 4.8841053138150466e-04  9.0588911472459718e-02 -7.2138227752775452e-03 8.9392180350748027e-04  8.8495829199364093e-02 -1.6385300883288219e-02 3.6306345881252527e-03  8.9006100880582861e-02 -1.5659405111372485e-02 3.1183920215555141e-03  8.7093945453652136e-02 -1.7604036609034566e-02 3.7695639010144758e-03  8.6190200749049525e-02 -1.7775205704908089e-02 3.4894388146616854e-03  8.8034633803091927e-02 -1.5731152225544668e-02 2.7985372401473619e-03  8.7515185708203172e-02 -1.6535614703870927e-02 3.3723273674110738e-03  8.5256218124475591e-02 -1.7880291703373720e-02 3.2240753766029210e-03  8.7024610556651491e-02 -1.5732732586805791e-02 2.5186512449191707e-03  8.6482951808934255e-02 -1.6601400067083310e-02 3.1236701461253296e-03  8.4324688673477810e-02 -1.7919422985184192e-02 2.9577621183777157e-03  8.6002407210142781e-02 -1.5688843534527951e-02 2.2484748696885446e-03  8.5447261366197888e-02 -1.6608020069810058e-02 2.8649851693921748e-03  8.3419391123326844e-02 -1.7905646217226033e-02 2.6823867710552658e-03  8.5002342483858045e-02 -1.5615871240192456e-02 1.9741191263038353e-03  8.4447022083846732e-02 -1.6570116713784291e-02 2.6021673046329758e-03  8.2537476981556848e-02 -1.7848582090236469e-02 2.3893234137234735e-03  8.4020570040664641e-02 -1.5512739720642160e-02 1.6884053045320934e-03  8.3465661359626533e-02 -1.6490312342142405e-02 2.3228161346627945e-03  8.1679045681700757e-02 -1.7749758958586232e-02 2.0695475277232116e-03  8.3039241428910643e-02 -1.5371268307275393e-02 1.3809231524655467e-03  8.2490065875046550e-02 -1.6362732464244314e-02 2.0155405966195829e-03  9.9747830225742018e-02 -8.0189354251322686e-04 2.2289506907382590e-04  9.9077104886273554e-02 -9.4981400730162360e-04 2.8447361109949418e-04  9.8472789661360222e-02 -1.2378286650388003e-03 4.0945509398188632e-04  9.7917826997063431e-02 -1.6492676197532225e-03 5.7910857091452838e-04  9.7313615662230540e-02 -2.1526849025996649e-03 7.9637255056454073e-04  9.6639124300418572e-02 -2.7246396888879884e-03 1.0468804933017150e-03  9.5943862143467423e-02 -3.3671704081102405e-03 1.3330900425808428e-03  9.5306289015844758e-02 -9.2230017655470370e-03 2.5833563386546844e-03  9.4146523940980012e-02 -9.1661779962066963e-03 2.3901237105877606e-03  9.3000650208022756e-02 -9.1377182718240628e-03 2.1976300487242203e-03  9.1883366191042815e-02 -9.1428120543582733e-03 2.0203262919187719e-03  9.0769192029923326e-02 -9.1617516330378401e-03 1.8572262848648973e-03  8.9660194697915099e-02 -9.1899427952709997e-03 1.6956138051461719e-03  8.8591496740263509e-02 -9.2543097997074535e-03 1.5489257452374261e-03  9.9826140762834414e-02 -7.8503452640834692e-04 2.5254963440115697e-05  9.9178050019447489e-02 -2.3954919820032877e-03 6.9608738841364193e-04  9.9674840736637210e-02 -1.1379722483046953e-03 4.1141801598776653e-05  9.8983397380148830e-02 -1.2501214342971754e-03 1.4803479541705840e-04  9.8264217271738521e-02 -2.5217810184586711e-03 7.6271264155008153e-04  9.9166324497823338e-02 -9.1561633587527666e-04 1.1855873605648749e-04  9.7461992786847890e-02 -2.7323860736211385e-03 9.0617337791613125e-04  9.8589651324754085e-02 -1.1662554535476373e-03 3.0587122622880667e-04  9.8383811036135721e-02 -1.4628877566557283e-03 3.5787714446117625e-04  9.6739304157113140e-02 -3.0352534423720994e-03 1.0974430140024420e-03  9.8067400048189923e-02 -1.5380871171896896e-03 5.4468629598453827e-04  9.7853216403334609e-02 -1.7814372433350774e-03 6.2897149022578518e-04  9.6012242874979767e-02 -3.4004716490026619e-03 1.3468442717503401e-03  9.7514803248967413e-02 -1.9883194200715662e-03 8.3807110442993705e-04  9.7304191141718302e-02 -2.1665375333724374e-03 9.6283979528357484e-04  9.5239503582345383e-02 -3.8152885167964906e-03 1.6431757438435367e-03  9.6889774683802596e-02 -2.5018328727796171e-03 1.1866471315429231e-03  9.6702555185708694e-02 -2.6072455636754407e-03 1.3552763906510181e-03  9.4380444636200891e-02 -4.2808292610390175e-03 1.9818610693804841e-03  9.6222252524705801e-02 -3.1085551819821384e-03 1.6095526858929943e-03  9.6062830474774791e-02 -3.1299651954219041e-03 1.8192425998607485e-03  9.1858275178399049e-02 -1.3510643507920238e-02 3.5861969033385748e-03  9.0732533074248070e-02 -1.3452077338532285e-02 3.4644385804925627e-03  8.9605528979117277e-02 -1.3384828154575411e-02 3.2546195127564916e-03  8.8517547039428449e-02 -1.3306226851831603e-02 3.0468509707762951e-03  8.7449516820968257e-02 -1.3209164860726702e-02 2.8465623737404205e-03  8.6350769808151484e-02 -1.3074677259628562e-02 2.6446444293071578e-03  8.5198974125545612e-02 -1.2891929380469595e-02 2.4447365052988530e-03  9.7869348971676415e-02 -4.2410307406072992e-03 1.5000305877036818e-03  9.7857626586087584e-02 -4.6901628773918678e-03 1.6083581835588810e-03  9.6854744153149416e-02 -4.6229153168084250e-03 1.4161542692757785e-03  9.6907285070096716e-02 -4.1643825544030256e-03 1.3158580252399267e-03  9.5887973023847495e-02 -4.6445130520935173e-03 1.2429220632004462e-03  9.6003418956085398e-02 -4.1832462124857441e-03 1.1299517702453431e-03  9.4950525233224906e-02 -4.7375173465595962e-03 1.0648987612548217e-03  9.5130818044665416e-02 -4.2767672601787630e-03 9.1906665680672507e-04  9.4043819236052498e-02 -4.8993124911322350e-03 8.6904303574194262e-04  9.4285062290350996e-02 -4.4437509553884799e-03 6.7792353143661930e-04  9.3191445110097193e-02 -5.1440747049994670e-03 6.4603260973722767e-04  9.3498050308942357e-02 -4.6898608430411800e-03 3.9896245162381603e-04  9.2425845205387158e-02 -5.4919294351954626e-03 3.8932692058360691e-04  9.2788612725726222e-02 -5.0197690034496055e-03 8.0816375698237664e-05  9.9737806377291779e-02 1.8182450661635878e-04 3.0883709875038000e-05  9.9650822350980564e-02 2.8891085959605679e-04 1.4154048660908793e-04  9.9522050167925688e-02 2.4699380398021675e-04 1.7348213735703992e-04  9.9569074332335181e-02 1.4496269019619642e-04 1.0463950664200813e-04  9.9334513734778612e-02 -1.6106359775399801e-05 1.6811209623935787e-04  9.9313196550498861e-02 -1.5040422280719994e-04 1.5057398036339123e-04  9.9092827891485324e-02 -4.3008559090292498e-04 1.7645060387541387e-04  9.9026171521898632e-02 -5.7338516322891133e-04 2.3877619191849038e-04  9.8714019578470188e-02 -9.8017689101901565e-04 1.9083583969716731e-04  9.8626173317922783e-02 -1.1179441209620794e-03 3.5282435415723642e-04  9.8193472203821977e-02 -1.6174695652266665e-03 1.8597953965024760e-04  9.8068674882350257e-02 -1.7817474390629409e-03 4.6997794906777581e-04  9.7663434576437141e-02 -2.2392851805776606e-03 1.6476384780718316e-04  9.7468749034843663e-02 -2.4457312216752645e-03 5.7344025492886874e-04  8.6985136372691951e-02 -1.7963590809164567e-02 4.2946235858207392e-03  8.8349515072698934e-02 -1.6757136092039358e-02 4.1482806720588555e-03  8.7352775115122974e-02 -1.6990260399792782e-02 3.9736946426028536e-03  8.6068216131303485e-02 -1.8200750061361522e-02 4.0888423461252774e-03  8.6293819898790008e-02 -1.7126987614936109e-02 3.7711749374745268e-03  8.5127613252347328e-02 -1.8366074854015396e-02 3.8781165057994891e-03  8.5256418599488418e-02 -1.7187938404009968e-02 3.5478259005843672e-03  8.4200638641806075e-02 -1.8452477567988981e-02 3.6525638611226139e-03  8.4252568726654098e-02 -1.7195367952086892e-02 3.3110571243472635e-03  8.3296729193443886e-02 -1.8479786101149115e-02 3.4095573028221937e-03  8.32719501589612