<?xml version="1.0"?>
<VTKFile type="UnstructuredGrid"  version="0.1"  >
<UnstructuredGrid>
<Piece  NumberOfPoints="1012" NumberOfCells="4324">
<Points>
<DataArray  type="Float64"  NumberOfComponents="3"  format="ascii">9.934620869223124 3.893722256974707 3.20251320624355  9.866795192279152 3.921606578204871 3.113111358860062  9.826582413044678 3.86458465614687 3.249921202810234  9.822477909236369 3.91807358628391 3.271212235507683  9.860356257996092 3.973502932433574 3.132112009068786  9.92861826726979 3.946112066927183 3.224184323330544  9.818308047458123 3.971630877699502 3.292627886642588  9.853887762680918 4.025496044157539 3.151221112458557  9.922588942366817 3.998595693256586 3.245949656945938  9.81410229740287 4.02530509878747 3.314121361652903  9.847397976414888 4.077626474464172 3.170401935992226  9.916536521435074 4.051206812301688 3.267784093565078  9.809894438500972 4.079114304890538 3.3356409917651  9.84088936705289 4.129918753222813 3.189617716990079  9.910473769699379 4.103966600286645 3.289658899093128  9.805723444980469 4.133075608001336 3.357139265101383  9.834372912078761 4.182405509270577 3.208828018052984  9.904421796193928 4.15690422491158 3.311543053633461  9.801661441440991 4.187206364227761 3.378551975459983  9.827879006177616 4.23512901959733 3.227986887845084  9.898403936491572 4.210069561502609 3.333407740142931  10.06552139815354 4.208937317655034 2.460435624898474  9.972242923280124 4.203500142649458 2.389095435010698  9.993371518633724 4.166142787080622 2.521888869580193  9.978560644805228 4.215590518788404 2.539418242970495  9.957496185879299 4.254794096028794 2.405266654502211  10.04847156260536 4.258937214260218 2.477564651819143  9.963903576996808 4.265253353706453 2.556925450555786  9.94293793522008 4.306288817212056 2.421375563098602  10.03166980001423 4.309151250777934 2.494633203480846  9.949295436024798 4.315072656904184 2.574465019664328  9.928461827159362 4.357925747170635 2.437477315512843  10.01498004453633 4.359486156269657 2.511688079170728  9.934634447817656 4.364995237459078 2.592062935217701  9.91395824297026 4.409646340341578 2.453618258555241  9.998269512404418 4.409874667952599 2.528767180600064  9.919798983180184 4.414985668374674 2.609759453949234  9.899298226666046 4.461411898273467 2.469849154319107  9.981390950324288 4.460258395222936 2.545906704881471  9.904649060142438 4.465020966142552 2.627596421891976  9.884329333028059 4.513219283260906 2.486234665370487  9.964117660723936 4.510587543223423 2.563165079338934  8.987591692058965 3.847146714848024 3.054437152995741  8.938308606269832 3.869509059736925 2.963256761118864  8.896527013464288 3.825852286775401 3.101628448577795  8.892515603372233 3.878431044328029 3.115853191099767  8.93408000014438 3.92021297714988 2.978987093091362  8.982994217993078 3.898981413613638 3.069034684712581  8.978473352321386 3.95095282094022 3.08373368533469  8.929925716709658 3.97111500184896 2.994779615506154  8.888590787016541 3.931217799346595 3.130214861599225  8.974006646934336 4.003132814828959 3.098498755972897  8.925810203751551 4.022218088025737 3.010629539438528  8.884729225248314 3.984218122616571 3.144651517136657  8.96953537170085 4.055529910560666 3.113304315932727  8.921685499713199 4.073544495789157 3.026540819790161  8.88087766539191 4.037455988452161 3.159121980107157  8.965012167813233 4.10816858655315 3.128122563065066  8.917504387358493 4.125136224547095 3.042525043351042  8.876974048227517 4.090964005662689 3.173590004504922  8.913205175866649 4.177015785935831 3.058568706588044  8.960366753043406 4.161118729546361 3.142909829174596  8.973520021082338 3.942939582164623 2.761174704851625  8.919437161971761 3.973172598385624 2.664763798342906  8.850000488309339 3.924430951421513 2.77700045749684  8.845558936027526 3.974246134588466 2.794653993755094  8.914166478567155 4.023139872836157 2.683635033795931  8.968496262255448 3.992509072475547 2.779410391332544  8.963549666110868 4.042255946091477 2.79758731486911  8.908980749828478 4.073339856758101 2.70239775104662  8.841212600020709 4.024305650680372 2.812261683004634  8.958618594348721 4.092194028826115 2.815810582417105  8.903804985710346 4.123712351629403 2.721188720606563  8.836894168489238 4.074569616046895 2.829906045595228  8.953672894035131 4.142305310517072 2.83412099183176  8.898603822019675 4.174241179737948 2.74008187731194  8.832556856507283 4.125039009432236 2.847645875211998  8.828154626954319 4.17570064699957 2.865540116899665  8.893343848974583 4.224892920708889 2.759144583969554  8.948665184007591 4.192616678837588 2.852583469980953  8.887972614817221 4.27563985573046 2.778454943097415  8.943545650576706 4.243084699946415 2.871261481109642  8.91969193935979 3.903739148817139 2.853349498971146  8.91514730212038 3.953532003266118 2.870435668089378  8.910680143292728 4.003566914142301 2.887523943345037  8.906236428437648 4.05380924853706 2.904661833501768  8.901776005392803 4.10425729769339 2.921880057969638  8.897260402694561 4.154914808381353 2.939207644853848  8.892628173690408 4.205789038705409 2.956705871656081  9.733437488808706 3.8859869902793 3.175477467232727  9.728467981459573 3.939157589068572 3.193841997950252  9.723445801632922 3.992429272785077 3.212367301305956  9.71840565148932 4.045819057188343 3.230965429207924  9.713359098090345 4.099359828811988 3.249581687477798  9.708325560667133 4.153078706484415 3.268160037083971  9.703345252139803 4.207000211139617 3.28663389615714  8.798755602450578 3.892653072206757 3.038368010073994  8.795622144649553 3.944544934728655 3.053242507970128  8.792541187855146 3.996672940811393 3.068180280852149  8.789471949704728 4.049060976350285 3.083166144770087  9.873732927403314 4.148008157836672 2.474690900669974  9.861480362717664 4.198043321843594 2.49192457935491  9.849326280970676 4.248314970390728 2.509143970986769  9.837192361717957 4.298749474892071 2.526401981220737  9.825013768110258 4.349325922937538 2.543732231741408  9.812710836826236 4.400043003851473 2.561181715470424  9.800143338993369 4.450924067701028 2.578829671517043  9.942172703320498 4.118202327839835 2.609749586008327  9.928972611767602 4.166752545430362 2.628038485418664  9.915903441568744 4.215519587761015 2.646305786101788  9.902843226935254 4.264449422474853 2.664637323232657  9.889722543007592 4.313519494417461 2.683041805869503  9.876446421022882 4.362723427179293 2.701555893935364  9.862867828744408 4.412054954331477 2.720243290804004  8.832161926925526 3.926352244103224 2.933667442111328  8.828488394984484 3.97702182795335 2.949809705238122  8.824858430285433 4.027933460796423 2.966012486417316  8.821222460450592 4.07908275470528 2.982288292506203  8.817530937503598 4.130487904321829 2.998653197739202  8.813725757204644 4.182173485071072 3.0151302116418  9.18357931560975 3.867788679181837 3.046087376060937  9.18694492255568 3.897398516268535 2.951134610793845  9.066681263218545 3.880311400247725 2.963506500834364  9.061931673973703 3.930787963647303 2.979209910218608  9.181546155430897 3.947700258564688 2.967200022486063  9.178434561793267 3.919323418037863 3.061188308255702  9.057237358918375 3.981442316554628 2.994980847751605  9.176180019198766 3.998164767133289 2.983333900876876  9.173327772661684 3.97097294076334 3.076396550226152  9.052567083692338 4.032290452785462 3.01080647613966  9.170826642119618 4.048795561992166 2.99952618442626  9.168247143545814 4.022787634692969 3.091668788111551  9.047884406071102 4.083330411320728 3.026684162623194  9.165460895807737 4.099607284900658 3.015767892996724  9.163156357116385 4.074782827096636 3.106975826829412  9.043152196394562 4.134573197783848 3.042604291277461  9.160051344953406 4.150626127627701 3.032047869352436  9.15801788772997 4.12698551250732 3.122280010074732  9.038337343983169 4.186037952927058 3.058552069055926  9.154530195118271 4.201909586786296 3.048353545352988  9.152781483108278 4.179444858907619 3.137526914383323  9.073266668921367 3.841860796202227 3.10277056542496  9.068501266360897 3.894222724167402 3.117272999195102  9.063798792679922 3.946769876453678 3.131919420190175  9.059139442680729 3.999488092995556 3.146630531679375  9.054478295309535 4.052402704818421 3.161371491288692  9.049765900810973 4.105545445780622 3.176095664691188  9.044935877265079 4.15896137183087 3.190737927029632  9.830556882972415 4.101022932493454 2.577747189695471  9.820265245075788 4.15019931443439 2.595290005612278  9.810042997909045 4.199604793490246 2.612824755261606  9.799806786226959 4.249175310956118 2.630422342287006  9.789515107505199 4.298906972125387 2.648101014882582  9.779112838930967 4.348811333285667 2.66589523634604  9.768520603652348 4.398956934089937 2.683869879727113  9.702066418918973 3.841612499042899 3.291075545135962  9.698710200071282 3.896068389725145 3.312082306430403  9.695289455555711 3.950570906584211 3.333247316604064  9.691845807416911 4.005163339465087 3.354484322292863  9.688405811907712 4.059875938210041 3.375735357634978  9.685001890295512 4.114720220883017 3.396944830243796  9.681679380716313 4.169690599006884 3.41804236177889  9.431971412307023 3.871738912298978 3.122321823732471  9.402461710946675 3.900016429560717 3.014274995088599  9.299294953563971 3.863232192865442 3.102398589166074  9.29399211506529 3.915534337633174 3.117487271003535  9.397147666343164 3.95123839136217 3.029787025243602  9.426556147349107 3.924449704779405 3.137879762827664  9.288716523469603 3.967961812084451 3.132720437783107  9.391823163681929 4.002580704710464 3.045423068031661  9.421138096845757 3.977249839388666 3.153590921304364  9.283452918751399 4.020532131605276 3.148031278943312  9.386493967904107 4.054073585507776 3.061128763671982  9.415726011862114 4.03018108076586 3.169371148597917  9.278180655718979 4.073262200114249 3.163365545706246  9.381152701606291 4.105736560095394 3.076864896680991  9.410306156158804 4.083265926438486 3.185165819263784  9.27287330665653 4.126168454709107 3.178667671317862  9.375787316337023 4.157593295435588 3.092588617
[...]
<PointData  Vectors="f_16"> 
<DataArray  type="Float64"  Name="f_16"  NumberOfComponents="3" format="ascii">1.3486985362615979e-02 -8.2772276135973342e-03 1.9924947541486906e-03  1.4111028166909349e-02 -9.3199235257135256e-03 1.5171939943654108e-03  1.4196734155127923e-02 -8.9695126368993933e-03 2.4613415777018444e-03  1.3723885570227749e-02 -8.6721886155110284e-03 2.1313567677090136e-03  1.3564272263806887e-02 -9.1548598332280469e-03 1.2500294539176096e-03  1.2958753281044257e-02 -8.0476278851618777e-03 1.7164253851940448e-03  1.3238920398826876e-02 -8.3553156483070420e-03 1.8431746832229033e-03  1.3011175431606743e-02 -8.9545371592795499e-03 1.0278228839195366e-03  1.2425893408755809e-02 -7.7895516297345150e-03 1.4789003194277583e-03  1.2741251855128815e-02 -8.0110535465088614e-03 1.5769475284828924e-03  1.2448374492612994e-02 -8.7129371726490726e-03 8.3146619980085641e-04  1.1885233761501341e-02 -7.4977265429691260e-03 1.2638696289578655e-03  1.2235491873509530e-02 -7.6302355598582006e-03 1.3142058846362526e-03  1.1872653435849961e-02 -8.4242661488891663e-03 6.4517846811416272e-04  1.1335940638919259e-02 -7.1664221672581626e-03 1.0577424291091429e-03  1.1729812498347885e-02 -7.2038756987106572e-03 1.0362157701442410e-03  1.1289676286281733e-02 -8.0799746164384890e-03 4.5300927665615977e-04  1.0775178477049507e-02 -6.7844630393585417e-03 8.4673575088435571e-04  1.1234186710530909e-02 -6.7186791382379141e-03 7.1684317935114753e-04  1.0758357032007899e-02 -7.6711973736938808e-03 2.3129454097525756e-04  1.0245532056664581e-02 -6.3401816940115343e-03 6.1075651638991082e-04  1.2168346735436812e-02 -6.1912564828956610e-03 -1.2241271361084298e-03  1.2785700350314129e-02 -6.8821343021635960e-03 -1.5921029004097233e-03  1.2969134886565481e-02 -7.4340931465332301e-03 -1.2211034443015164e-03  1.2287994578029749e-02 -7.6497218400325305e-03 -1.0558048770311472e-03  1.2123113964452623e-02 -7.1050325459029633e-03 -1.3176374561320052e-03  1.1464146544516444e-02 -6.4106778392341831e-03 -1.0209990027554938e-03  1.1640478741181683e-02 -7.7872919920937752e-03 -8.7889982111742876e-04  1.1496090456858078e-02 -7.2470747479274431e-03 -1.0432519760545688e-03  1.0807519874017166e-02 -6.5616446492311768e-03 -8.1579222245466891e-04  1.0997564880550568e-02 -7.8663184345321158e-03 -6.8735612887231058e-04  1.0876813269100213e-02 -7.3315767190412998e-03 -7.5898978725824585e-04  1.0164504595919558e-02 -6.6644234707160703e-03 -6.0183238372247508e-04  1.0340569799188251e-02 -7.9012880416792098e-03 -4.7241524852753781e-04  1.0244774810890051e-02 -7.3729638902490851e-03 -4.5305025390519627e-04  9.5111715587294955e-03 -6.7346196733818180e-03 -3.7012669412770104e-04  9.6964350128622302e-03 -7.9026573838280080e-03 -1.9299833943729600e-04  9.6260418879698210e-03 -7.3800070232151920e-03 -8.1334370588651825e-05  8.8665158423886416e-03 -6.7877715216611385e-03 -8.2933277607545038e-05  9.0723392483367631e-03 -7.8755245294737757e-03 1.8741782615417651e-04  9.0253079350315554e-03 -7.3579613595213707e-03 3.9317022256006503e-04  8.2294702065448411e-03 -6.8345036083927949e-03 3.0914761783184906e-04  2.0507113153225846e-02 -1.6799534628562596e-02 2.7133698802470118e-03  2.0586062643004267e-02 -1.7377834052413277e-02 2.1645358121075643e-03  2.1115859094030267e-02 -1.7188680951454319e-02 3.2931962284371442e-03  2.0816127899682065e-02 -1.7141563193367730e-02 2.9524611020410661e-03  2.0290066857686931e-02 -1.7369225554288673e-02 1.9925267763294626e-03  2.0168576926079852e-02 -1.6748701433355738e-02 2.4306326812843027e-03  1.9854808348936413e-02 -1.6623220114605833e-02 2.1768384423337781e-03  2.0014208944513782e-02 -1.7281562620230225e-02 1.8402999629209321e-03  2.0546706569534307e-02 -1.7012061785111429e-02 2.6460905086225926e-03  1.9548402035056135e-02 -1.6422820433896895e-02 1.9453203143350827e-03  1.9743529390190050e-02 -1.7114745778451880e-02 1.7073263375256185e-03  2.0290201424115240e-02 -1.6799582097747547e-02 2.3633559845957679e-03  1.9232516377545188e-02 -1.6143147051034167e-02 1.7273590894033091e-03  1.9463565332143076e-02 -1.6864871212080624e-02 1.5928816357569835e-03  2.0026404958055848e-02 -1.6499265368779631e-02 2.0930239491885124e-03  1.8888017232111216e-02 -1.5775024085108037e-02 1.5129990625569400e-03  1.9157288515886356e-02 -1.6524962897755176e-02 1.4968850914745117e-03  1.9734082287182046e-02 -1.6100952761111956e-02 1.8208323625998077e-03  1.8834799712839623e-02 -1.6081517243472551e-02 1.4273118756848644e-03  1.8518389075673929e-02 -1.5307456199633621e-02 1.2877985626756061e-03  1.9928086056512237e-02 -1.6863945317777213e-02 7.9344675988874715e-04  2.0058907545155241e-02 -1.6655060743847684e-02 4.8738800947741473e-04  2.0680884027613141e-02 -1.7667954845546029e-02 1.2282476585508005e-03  2.0446900722328829e-02 -1.7732297129871281e-02 1.2942995392508474e-03  1.9801165764394123e-02 -1.6728990282403426e-02 7.0106152747628000e-04  1.9653330165774658e-02 -1.6910858867404014e-02 8.8236315905007806e-04  1.9387565856622550e-02 -1.6881293693446282e-02 9.6956258431698335e-04  1.9553262373824883e-02 -1.6727456440772327e-02 9.0141504916978860e-04  2.0225867261824407e-02 -1.7710033605279171e-02 1.3586367346486517e-03  1.9122294349119905e-02 -1.6780589081880657e-02 1.0692960554707393e-03  1.9306748584518668e-02 -1.6658557038254113e-02 1.1087552980712429e-03  2.0009770863154912e-02 -1.7608268965119071e-02 1.4355607486303179e-03  1.8849610593199499e-02 -1.6611258530619170e-02 1.1951739308968612e-03  1.9054775092805364e-02 -1.6529862796516061e-02 1.3438688094763473e-03  1.9787297979971648e-02 -1.7429844124082973e-02 1.5401512132917901e-03  1.9548670182678640e-02 -1.7176012059730312e-02 1.6923008888899335e-03  1.8789422449549259e-02 -1.6347980603033604e-02 1.6304426974249630e-03  1.8561633345241961e-02 -1.6376025328733751e-02 1.3653929811479541e-03  1.8499214772826067e-02 -1.6117662862806061e-02 1.9971666051901804e-03  1.8253531106772039e-02 -1.6077958330167615e-02 1.6056388981537616e-03  2.0453499213006029e-02 -1.7476313779457200e-02 1.4750284700554045e-03  2.0184561769069645e-02 -1.7507142224562650e-02 1.4425372335521666e-03  1.9930654569508842e-02 -1.7458644622045792e-02 1.4194067827269740e-03  1.9680618689286451e-02 -1.7332051041760419e-02 1.4116702270341721e-03  1.9422765394910096e-02 -1.7127177974548453e-02 1.4275080359521506e-03  1.9143843612899746e-02 -1.6840127600468872e-02 1.4783070246337348e-03  1.8844987836408412e-02 -1.6463080489977390e-02 1.5893288842867758e-03  1.4997663062880542e-02 -1.0200070220642260e-02 2.1185455828611559e-03  1.4510856382076382e-02 -9.9622780192208278e-03 1.7806492700850206e-03  1.4012493295877074e-02 -9.7004666968160159e-03 1.4920358774446875e-03  1.3504342549803251e-02 -9.4031186006134117e-03 1.2291833296758903e-03  1.2986901915495317e-02 -9.0623572027822598e-03 9.7002191806887098e-04  1.2461804054301391e-02 -8.6716451013717725e-03 6.9241668941902258e-04  1.1943500467917499e-02 -8.2333795607834534e-03 3.6180471202301875e-04  2.1148080960426717e-02 -1.8051164220091172e-02 2.7177485377149297e-03  2.0952941456304001e-02 -1.7963788630660116e-02 2.4916259386192842e-03  2.0767869726139195e-02 -1.7784893668079685e-02 2.2866882750322585e-03  2.0575961414014573e-02 -1.7509865814313137e-02 2.0993629427912960e-03  1.3787061162929090e-02 -8.6044574387891693e-03 -1.5451882096425460e-03  1.3185419732326439e-02 -8.8229770113863147e-03 -1.3282726647009700e-03  1.2598613872318164e-02 -8.9548061297483120e-03 -1.0959950567675405e-03  1.2010517199486566e-02 -9.0190141049651552e-03 -8.4577461287607138e-04  1.1402012362068845e-02 -9.0225849017149824e-03 -5.6694703122882144e-04  1.0812198626514022e-02 -8.9689247344798845e-03 -2.2032978765607555e-04  1.0251314083414426e-02 -8.8639507723316177e-03 2.2650812717426764e-04  1.3597404244250804e-02 -8.5045450232792419e-03 -1.0298291797747759e-03  1.2947166817648443e-02 -8.6955915456671702e-03 -9.3401755559929486e-04  1.2319280074911928e-02 -8.8103128225487000e-03 -8.1662289363483229e-04  1.1690377289072972e-02 -8.8633975889585645e-03 -6.7965437842363685e-04  1.1041017782371567e-02 -8.8632450700276439e-03 -5.1855787317205170e-04  1.0405367661885942e-02 -8.8116175711561353e-03 -2.9885440404466945e-04  9.8029208295831363e-03 -8.7118236686161317e-03 2.3017204474787850e-05  2.0772315080805348e-02 -1.8053010729135954e-02 2.0105968540845474e-03  2.0558696983111246e-02 -1.7993109569305901e-02 1.9079985882461739e-03  2.0351436545420862e-02 -1.7846768771149310e-02 1.8232818523722875e-03  2.0136401062473736e-02 -1.7611526221492122e-02 1.7610451985301898e-03  1.9897028584872068e-02 -1.7279538075319810e-02 1.7275237908826117e-03  1.9634680339933940e-02 -1.6836813320982750e-02 1.7426705775546506e-03  1.9211063755009094e-02 -1.5398400866373002e-02 2.2503703393961772e-03  1.9006356515115622e-02 -1.5661402681527478e-02 1.5350317156324037e-03  1.9835627750644968e-02 -1.6505817109047496e-02 1.8743309768215410e-03  1.9489487149382780e-02 -1.6472426037664214e-02 1.6976418310993004e-03  1.8633976233805877e-02 -1.5611560756822863e-02 1.3635528268170407e-03  1.8812005772560977e-02 -1.5305375741435740e-02 1.9685474168216880e-03  1.9158200907834010e-02 -1.6370706540256897e-02 1.5432549434479612e-03  1.8270677918927416e-02 -1.5500838954582465e-02 1.2196788879762182e-03  1.8427412584409681e-02 -1.5154076917238612e-02 1.7218258632186584e-03  1.8829337389852110e-02 -1.6200294075211282e-02 1.4086484597475755e-03  1.7906709768713319e-02 -1.5327215908278026e-02 1.0968815664188327e-03  1.8044526438861411e-02 -1.4942161852125919e-02 1.4984904584010755e-03  1.8490484077604962e-02 -1.5957793088172717e-02 1.2904346897141558e-03  1.7532090913366667e-02 -1.5086631363075481e-02 9.8862213196864042e-04  1.7650147669953167e-02 -1.4665381546830662e-02 1.2859597074026741e-03  1.8126934975873862e-02 -1.5635804010240530e-02 1.1850647470937233e-03  1.7134070980356582e-02 -1.4771260990152284e-02 8.8631531563868472e-04  1.7228980912794720e-02 -1.4318392300321543e-02 1.0693313932645650e-03  1.7755268218584225e-02 -1.5218394718021229e-02 1.0967369642583093e-03  1.6738528768583099e-02 -1.4373948390074861e-02 7.9814221048451703e-04  1.6801976990806249e-02 -1.3889789637142770e-02 8.3548661259594096e-04  2.0066914549444408e-02 -1.5957676563430639e-02 2.8992040288513144e-03  1.9683418803244167e-02 -1.5861725434760068e-02 2.5587333741138012e-03  1.9323959466374732e-02 -1.5700470628695666e-02 2.2547353603058627e-03  1.8971715777331068e-02 -1.5472680968564979e-02 1.9746528749819891e-03  1.8609122718102576e-02 -1.5173728741473404e-02 1.7043790600117610e-03  1.8217211622666315e-02 -1.4797054572089373e-02 1.4269208286595151e-03  1.7799309829050557e-02 -1.4335837651650789e-02 1.1231616165819755e-03  1.4333463113839824e-02 -9.6768990376724841e-03 -1.2626745367454392e-03  1.3755465590852360e-02 -9.8568855383973312e-03 -1.1300925985139668e-03  1.3183580514756144e-02 -9.9560649214035287e-03 -9.7459028094428737e-04  1.2604612021645723e-02 -9.9864516551517041e-03 -7.9588231862608258e-04  1.2002144460174217e-02 -9.9511845105196284e-03 -5.8994079933507139e-04  1.1414328565449055e-02 -9.8478922729225600e-03 -3.2507395296971789e-04  1.0872120226895278e-02 -9.6704971182959669e-03 3.4825946087744720e-05  1.5095229558123832e-02 -9.6771635468616678e-03 2.9974278819740628e-03  1.4662177611401298e-02 -9.3226771276960357e-03 2.6117271579053931e-03  1.4217765142610514e-02 -8.9634249859806316e-03 2.2707836200767978e-03  1.3762664073582230e-02 -8.5824024156588435e-03 1.9505688349515896e-03  1.3300097666370390e-02 -8.1699759326498422e-03 1.6290844038221474e-03  1.2835765951859117e-02 -7.7229234000634620e-03 1.2833788212133269e-03  1.2378364728726046e-02 -7.2456827156330682e-03 8.9030019675541785e-04  1.7412747066462318e-02 -1.3032072532449788e-02 2.3483521979779094e-03  1.7562599747780270e-02 -1.3825795565294037e-02 1.5997074031261923e-03  1.8439692812812110e-02 -1.4216059810355553e-02 2.4635927737812024e-03  1.8005655355001524e-02 -1.4071208637856877e-02 2.1162597977676203e-03  1.7132500866693278e-02 -1.3719721100907066e-02 1.3392735793440816e-03  1.6958104627221169e-02 -1.2855737142522174e-02 1.9873240618059214e-03  1.7584286824622149e-02 -1.3878943313080915e-02 1.8133149553438289e-03  1.6701095054976065e-02 -1.3563716082992535e-02 1.1210550833625436e-03  1.6510643528028234e-02 -1.2640132492315265e-02 1.6750541596033495e-03  1.7163722614547690e-02 -1.3635795535228527e-02 1.5363135196890209e-03  1.6263770048067196e-02 -1.3353596651734190e-02 9.2897083115351504e-04  1.6060810217168684e-02 -1.2379857245684918e-02 1.3894902477838323e-03  1.6732120563910543e-02 -1.3337362562584016e-02 1.2663999844411626e-03  1.5814870570340339e-02 -1.3084303568542304e-02 7.4622057246375557e-04  1.5599678530432457e-02 -1.2069816944200182e-02 1.1085109959217208e-03  1.6276864340422737e-02 -1.2979138636784331e-02 9.8294785100644139e-04  1.5346499620757249e-02 -1.2749995643660595e-02 5.5375220360026232e-04  1.5119187388192070e-02 -1.1706760683550985e-02 8.0837384207224454e-04  1.5809094657462164e-02 -1.2550832658081282e-02 6.6521799172753881e-04  1.4895610016641898e-02 -1.2340900227609017e-02 3.3743537522718312e-04  1.4628215858291937e-02 -1.1287020281574153e-02 4.6168411520895730e-04  1.8022354834376510e-02 -1.3086637120986440e-02 3.0721488041093844e-03  1.7569467834822952e-02 -1.2864892740145874e-02 2.6456106318452160e-03  1.7132677585474161e-02 -1.2610607289868278e-02 2.2671681406163887e-03  1.6698191289729325e-02 -1.2316498838682771e-02 1.9150977452182176e-03  1.6253317603135958e-02 -1.1977928513651545e-02 1.5657079922815537e-03  1.5785241532067673e-02 -1.1591618009720814e-02 1.1941463273043003e-03  1.5287528005815409e-02 -1.1157867123785564e-02 7.7287977014290894e-04  1.5820687034034272e-02 -1.1341439320854876e-02 1.9612752227785753e-03  1.5843181047171546e-02 -1.1796384227574341e-02 1.2912601820044471e-03  1.6671674656447092e-02 -1.2715775576528143e-02 1.5680714347112482e-03  1.6211735546329622e-02 -1.2589288634280455e-02 1.2827061166841339e-03  1.5355626869454037e-02 -1.1682812904891086e-02 1.0249648962564703e-03  1.5338512368114105e-02 -1.1155313510219691e-02 1.6224924316835115e-03  1.5747221366959375e-02 -1.2417859492242739e-02 1.0455555001688942e-03  1.4860752800032143e-02 -1.1523905597922900e-02 8.0894861045267277e-04  1.4852881584274108e-02 -1.0935351943222446e-02 1.3367735752204085e-03  1.5274798500732779e-02 -1.2196170340345695e-02 8.3655492380119872e-04  1.4355520609990681e-02 -1.1315002984148503e-02 6.2268089320646736e-04  1.4359222417072113e-02 -1.0674919634213634e-02 1.0796178418446003e-03  1.4790426233026080e-02 -1.1918115829988423e-02 6.3620749402311003e-04  1.3837195786662119e-02 -1.1049303363977190e-02 4.4630808028536589e-04  1.3854099976731390e-02 -1.0367221715468441e-02 8.2811479064682798e-04  1.4290104733033087e-02 -1.1576894500998943e-02 4.2100638016833277e-04  1.3305576313294881e-02 -1.0718492809880966e-02 2.5811373166177178e-04  1.3336239468494326e-02 -1.0006220225051841e-02 5.5714950949814295e-04  1.3815346564334854e-02 -1.1165201279216849e-02 1.6796518999853105e-04  1.2815950603449134e-02 -1.0314885578195690e-02 3.6113161729759831e-05  1.2827826182084811e-02 -9.5874661720855413e-03 2.3465235703060356e-04  1.8879346605822730e-02 -1.3654513946780860e-02 3.5268832208097799e-03  1.8430554587730383e-02 -1.3431640721696768e-02 3.0659216427255569e-03  1.8008593175167058e-02 -1.3172427453252197e-02 2.6555819891884032e-03  1.7593615939282912e-02 -1.2869869903609556e-02 2.2719869379315251e-03  1.7169233307992235e-02 -1.2520633373978598e-02 1.8910829889236950e-03  1.6719682182291515e-02 -1.2122357093407714e-02 1.4863653094145885e-03  1.6231010426914549e-02 -1.1672531384791230e-02 1.0331508641620460e-03  1.5832030727301910e-02 -1.0740674439502674e-02 2.7510483253965060e-03  1.5373461194143036e-02 -1.0457200287632983e-02 2.3537716691370706e-03  1.4917109492285405e-02 -1.0156570468631134e-02 2.0063019868821960e-03  1.4453662669703712e-02 -9.8272019078317792e-03 1.6834637295590335e-03  1.3980571227194115e-02 -9.4617593139775281e-03 1.3605699819863829e-03  1.3495595111248673e-02 -9.0568052724565220e-03 1.0120425088795248e-03  1.2999370915709489e-02 -8.6159797980784238e-03 6.0964763754239458e-04  1.6585081454783355e-02 -1.1837669731180795e-02 2.5418784063594925e-03  1.6118734612916099e-02 -1.1606896294225500e-02 2.1535167937349118e-03  1.5658450534159079e-02 -1.1348851436054340e-02 1.8155727879141442e-03  1.5194917196559783e-02 -1.1054364015857779e-02 1.5046737218519064e-03  1.4720911655509959e-02 -1.0717674306985654e-02 1.1959461959482516e-03  1.4230064764560265e-02 -1.0335134580332641e-02 8.6329696787372447e-04  1.3725655196112099e-02 -9.9062148448113303e-03 4.7809820338502393e-04  1.9030755683117656e-02 -1.2453594658393182e-02 2.9203489314060900e-03  1.8337854611660966e-02 -1.0699316294311974e-02 3.2757759833426845e-03  1.9301167289507992e-02 -1.0244801578442049e-02 4.0049567736254307e-03  1.9389508833401219e-02 -1.2869243611023175e-02 3.4071775101305805e-03  1.8946925675835700e-02 -9.7102112601051890e-03 3.4465432572563610e-03  1.8642358369299145e-02 -1.1989923530325280e-02 2.4043801951002162e-03  1.7947107062368552e-02 -1.0201153370077067e-02 2.7422795990983953e-03  1.8559631836237545e-02 -9.1549288566590541e-03 2.8354923318850852e-03  1.8195501921491924e-02 -1.1479219669985852e-02 1.8281675650091880e-03  1.7517616770236936e-02 -9.6841344670910712e-03 2.1528224163967044e-03  1.1209607869934508e-02 -8.4205450118184071e-03 -4.9181732371505484e-04  1.2167361709435817e-02 -9.5150578977651074e-03 -4.8609621223991503e-04  1.1666773576640361e-02 -9.4198177098463315e-03 -4.0759912250887502e-05  1.0648037743805586e-02 -8.3740520305778370e-03 -6.5524907964898719e-05  1.1186719775026365e-02 -9.2614876014745391e-03 4.8913833054419961e-04  1.0107633637172174e-02 -8.2813696438517916e-03 4.5160142393628510e-04  1.9476698985291856e-02 -1.4881781903691358e-02 3.1360423486248776e-03  1.9054928669163720e-02 -1.4731651721750144e-02 2.7362391008100579e-03  1.8654749440052118e-02 -1.4526647505003263e-02 2.3800748777264326e-03  1.8261484054547208e-02 -1.4265729148584793e-02 2.0494554698008340e-03  1.7857789618562745e-02 -1.3945048766090125e-02 1.7251039018170485e-03  1.7425279785092576e-02 -1.3560060820956484e-02 1.3855286735733130e-03  1.6966240941878898e-02 -1.3107666211458979e-02 1.0054645596766221e-03  1.5123466281041012e-02 -1.0752810205656075e-02 1.3985266400456081e-03  1.4607450175194454e-02 -1.0618589534385103e-02 1.1201680859685562e-03  1.4084960529654455e-02 -1.0443452857707206e-02 8.9156482817720636e-04  1.3552117829065352e-02 -1.0222309086592631e-02 6.9252942408899634e-04  1.3005380624459280e-02 -9.9485585023971843e-03 5.0296140649904158e-04  1.2448586048080830e-02 -9.6141245983935135e-03 3.0354316409535821e-04  1.1940619738578183e-02 -9.2095352844962248e-03 6.6331867405189409e-05  1.4225596754743079e-02 -9.1972117964807323e-03 -1.8760755948420513e-03  1.4454923802909388e-02 -9.8224770657022713e-03 -1.5920104026188766e-03  1.3931040267425022e-02 -1.0011413635195620e-02 -1.3648798222275404e-03  1.3722026040913998e-02 -9.3935937879068756e-03 -1.5486095476646056e-03  1.3404147139976659e-02 -1.0116251282120875e-02 -1.1223983566819330e-03  1.3211545555517375e-02 -9.5036262284776130e-03 -1.2165639071868065e-03  1.2866510332246913e-02 -1.0149457698317934e-02 -8.5850567817930858e-04  1.2690607682703489e-02 -9.5430622090836876e-03 -8.6937489615692603e-04  1.2314722866933858e-02 -1.0114037166116276e-02 -5.6115932661926504e-04  1.1784561475019625e-02 -1.0006130662120388e-02 -2.0018579384991080e-04  1.1286718380667839e-02 -9.8247087601473874e-03 2.4961711411241699e-04  1.9675288264600254e-02 -1.3771532203379918e-02 4.2486390595676922e-03  1.9234752226112175e-02 -1.3522378390658700e-02 3.7261921544564664e-03  1.8829776498963939e-02 -1.3235635521724680e-02 3.2571668376157074e-03  1.8437440710836004e-02 -1.2904453823827901e-02 2.8164235770398007e-03  1.8037334707268739e-02 -1.2526286058285955e-02 2.3778207640304974e-03  1.7609758917052697e-02 -1.2099642256603378e-02 1.9139931569533547e-03  1.7136159195507844e-02 -1.1627632