<?xml version="1.0"?>
<VTKFile type="UnstructuredGrid"  version="0.1"  >
<UnstructuredGrid>
<Piece  NumberOfPoints="944" NumberOfCells="4013">
<Points>
<DataArray  type="Float64"  NumberOfComponents="3"  format="ascii">8.541292689025434 2.261514646558931 3.791633499664518  8.494240142119635 2.332776855592195 3.853210017357002  8.422264715435894 2.228919683852154 3.762151294873227  8.424978922168988 2.185181863795361 3.808572601952006  8.494558807453956 2.293063299167752 3.905926732708491  8.541909487779085 2.217891202471353 3.839078090932127  8.427590411255382 2.141458570792396 3.854948016850549  8.494764008654863 2.253375165567223 3.958611051593284  8.542389099818116 2.174295652378665 3.886494867657374  8.430153334271393 2.097745578897224 3.901279401239226  8.494924298153089 2.213696567986263 4.011249096731681  8.542812431941012 2.130711359144366 3.93387468353731  8.432705256438721 2.054036721170097 3.947561550545328  8.495083018329472 2.17401677239318 4.063829161477321  8.543232290412091 2.08712942117781 3.98120571318026  8.435286010426196 2.010334317827487 3.993785364955876  8.495282710165135 2.134335236770061 4.1163332153925  8.543703526977069 2.043551311699356 4.028472605442658  8.43795933958585 1.966656927568765 4.039932037412235  8.495589682952794 2.094650097700245 4.168749039395498  8.544310683802728 1.999981233964345 4.075662540748199  8.436517625261766 2.467474438410799 3.931537913400861  8.329794259674795 2.540608311269211 3.965027725457277  8.293811954873597 2.42939105983724 3.912961394696489  8.296734025984955 2.397271764637036 3.972764860677907  8.330805097811332 2.516158834121141 4.029664764426455  8.435381814428158 2.436831495826424 3.992146931819044  8.434159684672832 2.406212582290848 4.052707585744317  8.331785879727136 2.491690572955775 4.094224824847983  8.299617183800619 2.365154297999895 4.032482655312813  8.432904257615586 2.37559546783231 4.113214902323998  8.332746972293414 2.467200924991936 4.158718365129295  8.302483130858766 2.333028081261499 4.092141283939047  8.431647158314828 2.34496170130654 4.173666202031229  8.333706412168457 2.44269121374251 4.223150998007534  8.305341741018699 2.300891115805682 4.151738981649318  8.334670005496422 2.418158748845611 4.287516253940644  8.430420013615102 2.314309055746063 4.234043717027367  8.308199820810788 2.268751786670629 4.211259992054046  8.335655944674301 2.393623391486499 4.351786461747206  8.429282012785794 2.283658813365856 4.294327295920096  8.311054140145668 2.236643438958434 4.27067824825956  8.345068972231889 2.293467564613067 3.825890070105666  8.34691435040561 2.2535375911173 3.878009880743325  8.348670896341568 2.213622374284684 3.930061751148589  8.350386699754898 2.173710014713654 3.982059993481351  8.352089497519319 2.133799489138858 4.033998540935075  8.35380878928566 2.093904361177914 4.085861153251615  8.355607215663296 2.054058635159101 4.137616966747413  8.862742704881097 2.690054558461799 4.034107164277201  8.796544489451238 2.76799717932442 4.051959378778297  8.771994589301233 2.640799750408463 4.02262238812449  8.770489260915353 2.618835758228375 4.089366365055411  8.793022565456438 2.757155702251908 4.122297849855724  8.864509184068584 2.669835816254001 4.101610494335983  8.768933136062458 2.596974155292689 4.156077882265247  8.789488979257582 2.746394602780817 4.192554120412728  8.866252706867167 2.649734378256363 4.169080306602816  8.767354592952683 2.575150245388748 4.222756449702505  8.785962596535102 2.735650146463779 4.262739745987533  8.867992078237563 2.629673475380188 4.236517853035285  8.765782250919964 2.553307393728542 4.289388161132558  8.782451649819567 2.72488481190111 4.332868114918511  8.869734492482417 2.609600358511758 4.30391564678766  8.764239264576968 2.53139490067865 4.355961499543301  8.778952090139152 2.714053657616375 4.402939456145457  8.871490232628208 2.58945519494929 4.371261225424148  8.762743194791444 2.509360842625611 4.422473797545072  8.775471259783606 2.703091473786774 4.47294589226478  8.873255795007427 2.56916603476007 4.438534173612901  8.442360390786776 2.555870449162553 3.97089843390397  8.440693600802174 2.532023925736064 4.035616141411911  8.438962886586609 2.508196031055999 4.100260333054247  8.437211176592809 2.484363849889185 4.164848526490283  8.435463199731903 2.460511356405624 4.229380668335985  8.433740037085425 2.4366270059467 4.293846043856929  8.432073803413216 2.4127098052953 4.358231477102085  8.194046781479052 2.490549397163909 3.947302720910075  8.198637404913169 2.461984789257691 4.010399073165611  8.203228282271921 2.433393056906554 4.073396650613124  8.207808820477938 2.404774416562749 4.136320301229363  8.212380665296395 2.376138780924061 4.199184300765986  8.216926492232371 2.347492623076246 4.261985445514825  8.221430242723775 2.318864998131019 4.324700167096331  8.657524951409266 2.701294191828273 4.031695020255849  8.6517012771961 2.686090078709307 4.100460502490679  8.645846799793638 2.670946161184078 4.169151634729563  8.639980849818931 2.655813176076557 4.237779027564001  8.634123147006486 2.640660717495731 4.306351799676832  8.62829279666594 2.62544734036836 4.374864092759806  8.62251085378554 2.610133244143109 4.443315241866014  8.008002053772012 2.060149854809876 3.644488715697743  7.895116652487554 2.078780127099489 3.694657388924841  7.94551889811093 1.997170204060221 3.57861109564214  7.955251356233482 1.946971708984285 3.615561916170724  7.906281482466446 2.029912853331896 3.737615666823526  8.01715304618275 2.011999151558558 3.685506783065582  7.965034534938471 1.896800598745926 3.652460311712574  7.917513491642423 1.981065132997495 3.7805166090582  8.026338787977446 1.963870489449208 3.726465362425405  7.97481661125133 1.84664852413077 3.689315963374016  7.928751620504087 1.932231233034682 3.823367173824131  8.035521636159263 1.915758152159342 3.767375562403623  7.984565297046545 1.796511144125564 3.726132780655822  7.939955832204015 1.8834091778955 3.866173104882109  8.044671908195705 1.867658284985938 3.808242552895867  7.962045473223767 1.785782814477189 3.951671723364677  8.062708867742087 1.77152323577468 3.889828318826535  8.003784013314453 1.696266267611691 3.799654934902754  8.05375323602364 1.819572938638051 3.849065379818211  8.732290095551591 1.986895718806243 3.417755187570993  8.633995461636271 1.998481586346559 3.450246845674258  8.675013909272909 1.936223026502766 3.339072745140938  8.679439829292869 1.889241976518775 3.367385581603648  8.637145326053489 1.950213435094678 3.480279940480311  8.736046828189318 1.938637885060062 3.446297927340842  8.683765147656844 1.842266434702519 3.395685602256783  8.640159789628822 1.90195544708168 3.510292127264717  8.739685626611934 1.890377917445213 3.474829576090307  8.688037122526847 1.795296005425537 3.423969175436007  8.643109330182805 1.853707350426895 3.540279286755569  8.743267125416974 1.842121960234785 3.503343993751587  8.692290404981645 1.748330126417154 3.452228404539022  8.646039653612192 1.80547117068679 3.570234332133623  8.74683307587371 1.793870637780913 3.531830733072232  8.696562389725116 1.701367386884367 3.48045267459592  8.649001061028306 1.757253500606117 3.600143913144894  8.750429656862343 1.745621101185132 3.560276212014258  8.700913983166984 1.654413984221513 3.508622385044481  8.652101867790106 1.709058549426679 3.629990592339733  8.754130262700993 1.697366781790575 3.588669465788585  8.261668859754982 2.231957387522173 3.776900344467394  8.265789847481424 2.189993923376766 3.826309482556372  8.269855590435698 2.148037624076192 3.87565192637763  8.273892171547638 2.10608499236388 3.924937648532695  8.277906395499565 2.064135883027681 3.974168489050736  8.281900684060318 2.022198988293971 4.023339386368478  8.28590160336379 1.980311514223546 4.072427518118542  8.325777185871592 2.162017030177287 3.708983047337932  8.330277757417694 2.116141432904426 3.75220757016947  8.334714586178745 2.0702849721106 3.795372830836184  8.339115931096241 2.024444340302825 3.838485077202154  8.343498016961751 1.978621195324583 3.881542908393977  8.347872526379994 1.932830206950566 3.924536987857165  8.352254916468812 1.887089918903631 3.967454662750674  8.184995739573857 2.165262640049897 3.729287691365926  8.150339806172594 2.065586718152151 3.622352100440412  8.251627551325614 2.111482526735255 3.655143816486818  8.257593163836129 2.063834970693778 3.694908425923204  8.158023263408076 2.017663911330475 3.661595729269422  8.191624380050163 2.119994464595904 3.774715806789155  8.263522041145942 2.01621662805529 3.734614648455193  8.165706859993751 1.969769627871958 3.700780659459114  8.198231142235585 2.074740542070054 3.820078601102156  8.269421251180072 1.968613400640821 3.774273630620872  8.173373987238472 1.921896371421262 3.739915643889131  8.204815025782572 2.029499593025982 3.865382466061621  8.275296529261439 1.921025391983314 3.813886934261014  8.181010938553925 1.874043794260011 3.779004237138389  8.211373936152382 1.984273427555671 3.910629222688013  8.281151920375155 1.873458395458127 3.85345312450303  8.188598317591675 1.8262212283352 3.818043309714667  8.217902482411274 1.939075224683767 3.955812908451191  8.286980930211541 1.825931406153428 3.892960185445887  8.196100142203715 1.778437867223521 3.857022130938724  8.224393734471548 1.89392551970469 4.00092397706386  8.145915062785917 2.384497502109611 3.901226205587233  8.15284625706124 2.350389827410276 3.960382143834996  8.159781729796856 2.316257066346232 4.01945944794873  8.166720166003801 2.282121943332038 4.078467068061307  8.173644063177594 2.247980722536804 4.137411522167493  8.180530474051595 2.213841402880572 4.196289001518667  8.187343962111532 2.179726069598826 4.255101954994208  8.208282926634508 2.588049917411364 3.986850966873611  8.302100907990958 2.637018802919111 3.992473036405338  8.216979568055228 2.688419682869126 4.012263580503842  8.221430409709042 2.672614201339273 4.08150494111981  8.304084957819903 2.617996238580418 4.05978775911102  8.213127458446815 2.566547365040888 4.053751816368687  8
[...]
<PointData  Vectors="f_16"> 
<DataArray  type="Float64"  Name="f_16"  NumberOfComponents="3" format="ascii">3.2137953146649322e-02 -1.1623329309312707e-02 1.5351665259585572e-02  3.2347219042149905e-02 -1.1168500863276479e-02 1.5216015823338265e-02  3.2985678732852679e-02 -1.1547286870470956e-02 1.4841012861393756e-02  3.2818836037403654e-02 -1.1605588534555787e-02 1.5068835133243558e-02  3.2136759030840727e-02 -1.1200460176555913e-02 1.5478178814620595e-02  3.1916210151718194e-02 -1.1694735230441886e-02 1.5619127055206248e-02  3.2731396945978410e-02 -1.1690715508077940e-02 1.5316126441860015e-02  3.2029706730826078e-02 -1.1248870525892313e-02 1.5756623916676062e-02  3.1798063052973953e-02 -1.1773370415597690e-02 1.5892944484863256e-02  3.2689125236163116e-02 -1.1793364070149241e-02 1.5578751930885414e-02  3.1975570947144136e-02 -1.1308079615414020e-02 1.6048755567496287e-02  3.1731686844151168e-02 -1.1856396637250377e-02 1.6171408092385622e-02  3.2658587672624938e-02 -1.1912323643760462e-02 1.5857374070769967e-02  3.1927402985521318e-02 -1.1378701682892298e-02 1.6356233014948603e-02  3.1671213644519691e-02 -1.1944250040954441e-02 1.6456133459232587e-02  3.2604971022662695e-02 -1.2051561924477976e-02 1.6157040222619178e-02  3.1838768478376654e-02 -1.1464016852435938e-02 1.6682897746029521e-02  3.1570422185877696e-02 -1.2041538205281211e-02 1.6750271459718278e-02  3.2489762090539713e-02 -1.2223462720666184e-02 1.6491824742575715e-02  3.1658112503944243e-02 -1.1553466585093842e-02 1.7027884277296908e-02  3.1379722121287541e-02 -1.2144164355951222e-02 1.7051028298136421e-02  3.2424192295885293e-02 -1.0516384925637673e-02 1.4953739036060077e-02  3.2703401206907637e-02 -1.0193954249046228e-02 1.4552606918568167e-02  3.3237244886350117e-02 -1.0554073654757039e-02 1.4550275324373042e-02  3.3164305646873039e-02 -1.0523106605043018e-02 1.4743917508471451e-02  3.2609217518511778e-02 -1.0137150430229343e-02 1.4759689616963846e-02  3.2225937908999525e-02 -1.0484327289964920e-02 1.5182207552025406e-02  3.2151564886422755e-02 -1.0481811393693516e-02 1.5454549225914821e-02  3.2619104902978341e-02 -1.0114980280863061e-02 1.5022745067725416e-02  3.3170292694843791e-02 -1.0536219638775315e-02 1.4992317068316380e-02  3.2135942820515205e-02 -1.0490264746583312e-02 1.5755853971643776e-02  3.2666251185455818e-02 -1.0097225084834701e-02 1.5330298722800775e-02  3.3217246742337947e-02 -1.0570769094115532e-02 1.5282531675379976e-02  3.2129591607768876e-02 -1.0509477815194195e-02 1.6082627009909537e-02  3.2723842795432688e-02 -1.0090304540219674e-02 1.5676150976714855e-02  3.3277861603419140e-02 -1.0625470132301622e-02 1.5610136804693085e-02  3.2759932354788891e-02 -1.0109436567985403e-02 1.6069420011683745e-02  3.2078012686488147e-02 -1.0547943359321610e-02 1.6440610015214900e-02  3.3328909217687414e-02 -1.0710271145054753e-02 1.5986750909937366e-02  3.2733268009672821e-02 -1.0175277378650250e-02 1.6534804043014200e-02  3.1910306342351924e-02 -1.0623888595138225e-02 1.6849917403471783e-02  3.3352934162381206e-02 -1.0845706147993611e-02 1.6438732916768381e-02  3.3326190642345835e-02 -1.1113407696918097e-02 1.4667913827044092e-02  3.3210180205857455e-02 -1.1136194984685573e-02 1.4876473254772560e-02  3.3174670724585756e-02 -1.1194197598935519e-02 1.5120179871986734e-02  3.3184774322152423e-02 -1.1276889027903109e-02 1.5389425969336625e-02  3.3209036314199837e-02 -1.1384604121161631e-02 1.5685641244577712e-02  3.3214071741367451e-02 -1.1526088617976375e-02 1.6017498495136649e-02  3.3157079101967142e-02 -1.1710647822228564e-02 1.6390179519643864e-02  2.8133339250960506e-02 -9.8497330799545389e-03 1.6411532892630754e-02  2.8642403686892706e-02 -9.5518924028174645e-03 1.5960868218523317e-02  2.9242164392139926e-02 -1.0082899118146506e-02 1.6239593997722131e-02  2.9050860980112232e-02 -9.9773441011121629e-03 1.6673610439458027e-02  2.8433221974324640e-02 -9.3519478313465118e-03 1.6397360747349231e-02  2.8025944227005984e-02 -9.7130146760477029e-03 1.6902034188542643e-02  2.8980803137468352e-02 -9.8445521640671205e-03 1.7034066722295980e-02  2.8374433776474247e-02 -9.1226783246244805e-03 1.6750697893454177e-02  2.8005609720557871e-02 -9.5368229619745854e-03 1.7291735068669555e-02  2.8959329071658255e-02 -9.6939621228032246e-03 1.7351457457645405e-02  2.8368191890666580e-02 -8.8815019634517350e-03 1.7046949241669447e-02  2.8023338023413565e-02 -9.3391850966453444e-03 1.7611928017558634e-02  2.8930666140490172e-02 -9.5320710441131780e-03 1.7631850659708792e-02  2.8354990690312672e-02 -8.6359215826055692e-03 1.7297278459039653e-02  2.8039983010624141e-02 -9.1264296907926108e-03 1.7876207634424809e-02  2.8851289675376715e-02 -9.3613306598036190e-03 1.7871163406584584e-02  2.8289084547940494e-02 -8.3902529798656166e-03 1.7501441542188394e-02  2.8027320087447863e-02 -8.8992770239004586e-03 1.8086954581387392e-02  2.8691985635299001e-02 -9.1799078923955318e-03 1.8052252995340513e-02  2.8132337717508289e-02 -8.1480980336996224e-03 1.7655027507326504e-02  2.7968547159145863e-02 -8.6527241322977479e-03 1.8236072630634589e-02  3.2102029478189187e-02 -1.0200652388106239e-02 1.4894986692986723e-02  3.1911710630309766e-02 -1.0140788122941152e-02 1.5116267024903733e-02  3.1848143679040909e-02 -1.0101810499720502e-02 1.5398329998201371e-02  3.1838894437020732e-02 -1.0066830553384469e-02 1.5710894194483137e-02  3.1835282969865063e-02 -1.0037992853219713e-02 1.6048370731887297e-02  3.1785523395641398e-02 -1.0024836813915187e-02 1.6417732176668500e-02  3.1627266235483148e-02 -1.0035631618392216e-02 1.6838388815748433e-02  3.3455904466371242e-02 -1.0366574167557272e-02 1.4388352860609573e-02  3.3490809235505334e-02 -1.0313834928959544e-02 1.4583459354760490e-02  3.3602642356521259e-02 -1.0310824749195497e-02 1.4822139309293308e-02  3.3737207788041519e-02 -1.0321704146204261e-02 1.5110776101853726e-02  3.3889367282492110e-02 -1.0350868313797361e-02 1.5442723468577205e-02  3.4058097372485663e-02 -1.0408857700246025e-02 1.5828417710145651e-02  3.4250647698475446e-02 -1.0523468946222775e-02 1.6304354177423059e-02  3.0140751763285987e-02 -9.8404048644712798e-03 1.5587005034697291e-02  2.9882719620702408e-02 -9.6954552735277529e-03 1.5917987951310837e-02  2.9791164540125425e-02 -9.5419510462295982e-03 1.6240605526078918e-02  2.9763563726206449e-02 -9.3825910946179342e-03 1.6549440210226724e-02  2.9728573220526463e-02 -9.2217154997116160e-03 1.6843486152238473e-02  2.9622499367485768e-02 -9.0637316140266579e-03 1.7118989583240818e-02  2.9381739207770863e-02 -8.9088351503349792e-03 1.7357725791656214e-02  3.5605749211560442e-02 -1.2043847796338434e-02 1.4063019581669006e-02  3.6246058062821246e-02 -1.2073612108985656e-02 1.4329850928467272e-02  3.6151674257951932e-02 -1.2357495955915723e-02 1.3932387930418453e-02  3.6332358496032072e-02 -1.2457881120223399e-02 1.4063269152206138e-02  3.6498102701445496e-02 -1.2152207114734019e-02 1.4469454605911848e-02  3.5764401627210868e-02 -1.2120604557985186e-02 1.4211539182717772e-02  3.6503793156476387e-02 -1.2591703599701626e-02 1.4206222708836307e-02  3.6730826247356657e-02 -1.2268457607475233e-02 1.4622289655218805e-02  3.5921507008187421e-02 -1.2238291863651982e-02 1.4377824018516982e-02  3.6681236050323980e-02 -1.2751989238947669e-02 1.4360430034455498e-02  3.6966162261439957e-02 -1.2413560018984917e-02 1.4792109200469708e-02  3.6087846165276181e-02 -1.2386340856971375e-02 1.4559620347455032e-02  3.6877007877660711e-02 -1.2934245281538621e-02 1.4526841753109246e-02  3.7222150899132771e-02 -1.2582471543582555e-02 1.4978848357627268e-02  3.6274487037713098e-02 -1.2559593081086519e-02 1.4757421175558392e-02  3.7874328403944696e-02 -1.2957085233587731e-02 1.5403511154681391e-02  3.6764325006040030e-02 -1.2981367589224649e-02 1.5223675416997673e-02  3.7378318515449142e-02 -1.3351018594047021e-02 1.4907428341351333e-02  3.6494359876249619e-02 -1.2756474785173539e-02 1.4974951651269993e-02  3.0424477502272340e-02 -1.3816282729885596e-02 1.5165080949522604e-02  3.1393043413116516e-02 -1.3458028987274868e-02 1.4916683195074533e-02  3.0930008228132026e-02 -1.3957448339934023e-02 1.4704270683223228e-02  3.0822820678092992e-02 -1.4186606299714695e-02 1.4904868137704252e-02  3.1248791473930289e-02 -1.3656421020541648e-02 1.5131684284357095e-02  3.0312895882976410e-02 -1.4057398893358932e-02 1.5385852428815744e-02  3.0765533456530800e-02 -1.4398511647011449e-02 1.5091311554775000e-02  3.1170915485496706e-02 -1.3842396935914917e-02 1.5334176772224553e-02  3.0259757104404952e-02 -1.4269104521279085e-02 1.5589345199812782e-02  3.0733887437875501e-02 -1.4590844521668755e-02 1.5265773567770449e-02  3.1125682307194102e-02 -1.4015491022361484e-02 1.5528061372146792e-02  3.0235102466903925e-02 -1.4453998639377090e-02 1.5779517246013904e-02  3.0704647768302559e-02 -1.4763596755703575e-02 1.5432007783868032e-02  3.1084123534756196e-02 -1.4176043748349021e-02 1.5717901737866191e-02  3.0211791996200145e-02 -1.4613215280508636e-02 1.5960231727625160e-02  3.0654353673024461e-02 -1.4917915097567730e-02 1.5594532676035831e-02  3.1015986620282768e-02 -1.4326406830911999e-02 1.5909719299778375e-02  3.0162823190381525e-02 -1.4747736141077805e-02 1.6135151201446346e-02  3.0557701982705784e-02 -1.5058516512508911e-02 1.5760513884688541e-02  3.0882515223975133e-02 -1.4465036978916905e-02 1.6108090183029902e-02  3.0058227341358483e-02 -1.4858273071365450e-02 1.6307319472962708e-02  3.3877160373615246e-02 -1.1309691938811286e-02 1.4423208151521306e-02  3.3833135966657234e-02 -1.1341699436446815e-02 1.4615686218424302e-02  3.3844637352614358e-02 -1.1414306440766520e-02 1.4838473281130606e-02  3.3891462873484261e-02 -1.1517843134176647e-02 1.5086534619368012e-02  3.3958106294926967e-02 -1.1649442980795911e-02 1.5360506670728916e-02  3.4031817210071168e-02 -1.1812965278115616e-02 1.5668116910931805e-02  3.4090416126183597e-02 -1.2024503934364411e-02 1.6033067712968089e-02  3.3624746202026337e-02 -1.1705382502552123e-02 1.4472018008963661e-02  3.3537651652730573e-02 -1.1775269152365524e-02 1.4679060831540799e-02  3.3505890341284879e-02 -1.1879093959739229e-02 1.4902888760686633e-02  3.3507319502679350e-02 -1.2009378192071995e-02 1.5143370084363297e-02  3.3523320530274486e-02 -1.2164781292271536e-02 1.5403148324443958e-02  3.3536742830349929e-02 -1.2349624572387001e-02 1.5688771285779134e-02  3.3531565299631458e-02 -1.2566927606717820e-02 1.6006740931240909e-02  3.4396658276431478e-02 -1.1551258905095773e-02 1.4256280409220768e-02  3.4767444267402567e-02 -1.2021180040879794e-02 1.4014582373888685e-02  3.4122053221092963e-02 -1.1882086328654869e-02 1.4206847612358750e-02  3.4091524244753153e-02 -1.1956648444679608e-02 1.4393050768680636e-02  3.4814168943174899e-02 -1.2099097986297803e-02 1.4186019418150619e-02  3.4420614693195219e-02 -1.1604986697119530e-02 1.4437479904465015e-02  3.4097552860414639e-02 -1.2072683456130795e-02 1.4595400126010223e-02  3.4878317195541117e-02 -1.2217969855880452e-02 1.4370646081253380e-02  3.4476214409314900e-02 -1.1701967070857196e-02 1.4644689055505070e-02  3.4130511817085880e-02 -1.2218355625185641e-02 1.4812352569655162e-02  3.4960461759637768e-02 -1.2368959679768575e-02 1.4570059454484585e-02  3.4557587418115251e-02 -1.1832519425999249e-02 1.4874487011810279e-02  3.4180196080940126e-02 -1.2390192606741525e-02 1.5046315946146244e-02  3.5060796126798813e-02 -1.2548022689304420e-02 1.4787084707889009e-02  3.4658131865132079e-02 -1.1993656180062626e-02 1.5128769689562080e-02  3.4237728417300051e-02 -1.2590108705438394e-02 1.5302541347577822e-02  3.5181221723562951e-02 -1.2756396645906555e-02 1.5026699827867387e-02  3.4773746522977281e-02 -1.2188915301693148e-02 1.5413700540361725e-02  3.4301002084825637e-02 -1.2829207245267003e-02 1.5593755534120906e-02  3.5332197451223131e-02 -1.2992544907110581e-02 1.5292632487582150e-02  3.4903911627259608e-02 -1.2424045452908405e-02 1.5738808565773105e-02  3.4004182910066683e-02 -1.0704780915244582e-02 1.4410174660074911e-02  3.4082700064448739e-02 -1.0680875797151523e-02 1.4592330058904033e-02  3.4206330591852574e-02 -1.0706002992204398e-02 1.4819576214606264e-02  3.4350426110596945e-02 -1.0759207147043946e-02 1.5092974972797350e-02  3.4514236888697952e-02 -1.0838011814890901e-02 1.5407928264714469e-02  3.4702888806679280e-02 -1.0948657357381313e-02 1.5772290836058980e-02  3.4931708941810212e-02 -1.1104665293546277e-02 1.6208372672686228e-02  3.3036625073590092e-02 -1.0104923087585449e-02 1.4331224467098414e-02  3.2474447608102433e-02 -9.9530642303489007e-03 1.4364231133596172e-02  3.2603265975209079e-02 -9.8959651001201236e-03 1.4218682820163300e-02  3.2639456838776608e-02 -9.7758988490245328e-03 1.4444238431486654e-02  3.2413576423876683e-02 -9.8628779793196158e-03 1.4583845126114624e-02  3.3062913244795086e-02 -1.0018358671493801e-02 1.4544713252349080e-02  3.2765041278540602e-02 -9.6922117680107844e-03 1.4708602769735603e-02  3.2459244763206489e-02 -9.8098178185623431e-03 1.4849046752086922e-02  3.3179539672427642e-02 -9.9795936533347753e-03 1.4797990165680385e-02  3.2908109731823267e-02 -9.5982952058389654e-03 1.5015138139946262e-02  3.2533879669744130e-02 -9.7476571642143330e-03 1.5157716290503330e-02  3.3311930023939354e-02 -9.9385352352887729e-03 1.5100593145134150e-02  3.3064196543745560e-02 -9.5099851050677864e-03 1.5362854509825075e-02  3.2618788984052682e-02 -9.6902761913334242e-03 1.5504714725686850e-02  3.3458808559488698e-02 -9.9094409808358590e-03 1.5449031562301901e-02  3.3229389642600415e-02 -9.4449139839079422e-03 1.5767055145397849e-02  3.2688890254793261e-02 -9.6512402348801971e-03 1.5900659549335804e-02  3.3616424537319133e-02 -9.9064098414178361e-03 1.5859531526374506e-02  3.3403607464917252e-02 -9.4374676643266351e-03 1.6273100256095688e-02  3.2716512568661996e-02 -9.6652554041435149e-03 1.6394420200314751e-02  3.3789215650781274e-02 -9.9351406895089051e-03 1.6351564947946682e-02  3.5099561323933229e-02 -1.3110067848405816e-02 1.3237153656870958e-02  3.5396469593020508e-02 -1.2742394766778352e-02 1.3476006425454920e-02  3.5917880956766880e-02 -1.3133864059486614e-02 1.3071386604209277e-02  3.5969660604195978e-02 -1.3264048325902731e-02 1.3204740980760153e-02  3.5451282043953335e-02 -1.2854446939842125e-02 1.3624822777699724e-02  3.5106823758110327e-02 -1.3236819949556144e-02 1.3391120196550558e-02  3.6031363075254487e-02 -1.3417948456005751e-02 1.3336733532469842e-02  3.5517725044266986e-02 -1.2997360035128516e-02 1.3774608030172946e-02  3.5132624474668611e-02 -1.3387703077778019e-02 1.3540837544992846e-02  3.6104040741178053e-02 -1.3589293661497403e-02 1.3470432906615011e-02  3.5597367163064962e-02 -1.3163718720321056e-02 1.3929545709027727e-02  3.5173427425129529e-02 -1.3556887807821929e-02 1.3691528076260544e-02  3.6189662295278799e-02 -1.3774496455994475e-02 1.3610492577395099e-02  3.5692262543134498e-02 -1.3349421776173240e-02 1.4093629458111823e-02  3.5227217706504589e-02 -1.3740664185955966e-02 1.3848896742774945e-02  3.6290952234184166e-02 -1.3972160428361843e-02 1.3762869883708579e-02  3.5805636766484690e-02 -1.3553461953447598e-02 1.4272279062747461e-02  3.5292825100057303e-02 -1.3937990389880731e-02 1.4019762856993209e-02  3.6414388470898854e-02 -1.4184541924790687e-02 1.3935099890809483e-02  3.5942884297455686e-02 -1.3777813712816925e-02 1.4472493533226711e-02  3.5368281116498722e-02 -1.4150088274865684e-02 1.4212249341301999e-02  3.2091337722175206e-02 -1.3489311707017127e-02 1.4423355204960858e-02  3.1968141275727842e-02 -1.3669501900992391e-02 1.4620525338211740e-02  3.1889700106228228e-02 -1.3851803401462926e-02 1.4809302291858090e-02  3.1837271463133469e-02 -1.4029536747425282e-02 1.4992858452306364e-02  3.1790442768658597e-02 -1.4202136394660623e-02 1.5174794272837988e-02  3.1728103461943880e-02 -1.4371860789031307e-02 1.5360619150569257e-02  3.1628939290163784e-02 -1.4545050095804439e-02 1.5558033924639891e-02  3.3303455835679917e-02 -1.0124337168554978e-02 1.4360152605604887e-02  3.3447906564571583e-02 -1.0007268972408867e-02 1.4565618051040154e-02  3.3653992641725569e-02 -9.9388814241146792e-03 1.4810698395079621e-02  3.3867396348002926e-02 -9.8717851350729954e-03 1.5100809170359086e-02  3.4099438764681578e-02 -9.8150951962789040e-03 1.5434341878942708e-02  3.4371768391730964e-02 -9.7806531679761801e-03 1.5819642831759483e-02  3.4719530322672339e-02 -9.7898195382166639e-03 1.6292110732651827e-02  3.0095338629631211e-02 -1.1451079560220951e-02 1.6391842418889132e-02  3.1433068688266480e-02 -1.1481020601326613e-02 1.5751482548885924e-02  3.0449229460211641e-02 -1.1908311419276360e-02 1.6232920414625554e-02  3.0235401629297425e-02 -1.2018296368766499e-02 1.6577918752448732e-02  3.1189091085829970e-02 -1.1539521898354296e-02 1.6058389764483229e-02  2.9891507001837483e-02 -1.1510387297548521e-02 1.6773744122457759e-02  3.0147443960934991e-02 -1.2095485657179611e-02 1.6890368949431838e-02  3.1055751048687356e-02 -1.1593978357777694e-02 1.6364629014720321e-02  2.9810607078121731e-02 -1.1534362507523724e-02 1.7110386034820558e-02  3.0111187566632693e-02 -1.2144865879566384e-02 1.7178960694468635e-02  3.0980190879833891e-02 -1.1639776046138127e-02 1.6664331368804287e-02  2.9779791213181295e-02 -1.1531915519958663e-02 1.7415874116167126e-02  3.0075018530214086e-02 -1.2171770349694607e-02 1.7448307296455128e-02  3.0910663635827472e-02 -1.1678188140150309e-02 1.6958566279359009e-02  2.9747952870814783e-02 -1.1507976600559768e-02 1.7695652639013005e-02  2.9993747863938731e-02 -1.2179079507421099e-02 1.7701987416198082e-02  3.0799784847423642e-02 -1.1711311248843831e-02 1.7248132532231612e-02  2.9671563664621307e-02 -1.1464499923656953e-02 1.7951260904253242e-02  2.9818911857112506e-02 -1.2167520440332324e-02 1.7941841413740264e-02  3.0602182094132069e-02 -1.1744140659398227e-02 1.7534930833710931e-02  2.9511072688951479e-02 -1.1397084719372447e-02 1.8180158063409634e-02  3.5042858470823078e-02 -1.1750571724687754e-02 1.4149623794958429e-02  3.5151043265043827e-02 -1.1810039190471305e-02 1.4312020215305248e-02  3.5278650304903569e-02 -1.1914018272270413e-02 1.4497243101585110e-02  3.5423450984380586e-02 -1.2052524129525174e-02 1.4702362985844375e-02  3.5590230236012703e-02 -1.2220058581235994e-02 1.4928061767747604e-02  3.5786331323191360e-02 -1.2416318389887411e-02 1.5178470243601831e-02  3.6007184928119759e-02 -1.2651105216930171e-02 1.5463654151545705e-02  2.9885604494334281e-02 -1.5125897351470866e-02 1.5216262497077075e-02  2.9580781900077846e-02 -1.4884969692090043e-02 1.5732694272900642e-02  2.9589658229692492e-02 -1.5049459230465837e-02 1.5894437325167002e-02  2.9893174908150407e-02 -1.5305933510194393e-02 1.5357670763547883e-02  2.9574007835436525e-02 -1.5181815701082535e-02 1.6045620094214126e-02  2.9879355478555317e-02 -1.5458155257935490e-02 1.5488345793691774e-02  2.9509623600046664e-02 -1.5281063003717251e-02 1.6186850697033787e-02  2.9822406327221808e-02 -1.5583240537957713e-02 1.5609870028620697e-02  2.9584321960079461e-02 -1.4454066717553690e-02 1.5367461098898236e-02  2.9571021687840870e-02 -1.4687284252061799e-02 1.5557885697210403e-02  3.3799676871206052e-02 -1.0390815110126966e-02 1.4439216663215130e-02  3.3945704473621531e-02 -1.0317059393586269e-02 1.4631984246445934e-02  3.4144864081736212e-02 -1.0298200300089195e-02 1.4862911485034489e-02  3.4349635546544965e-02 -1.0291138980187194e-02 1.5144288422635134e-02  3.4573580102752625e-02 -1.0301218374547672e-02 1.5470959361864727e-02  3.4835499185309975e-02 -1.0338462963573153e-02 1.5849280711424781e-02  3.5183458334048387e-02 -1.0416405593880971e-02 1.6299138365708728e-02  3.4881334845129043e-02 -1.2455952259953478e-02 1.3746023886557060e-02  3.4770509677173850e-02 -1.2833941549202312e-02 1.3522016587960038e-02  3.4772455169377693e-02 -1.2951398771761916e-02 1.3684706217793193e-02  3.4908453669276050e-02 -1.2556848641256828e-02 1.3909250984982739e-02  3.4793756651150781e-02 -1.3096260815665232e-02 1.3846726250752048e-02  3.4956752857686693e-02 -1.2691875643336693e-02 1.4077203429172677e-02  3.4831674221