<?xml version="1.0"?>
<VTKFile type="UnstructuredGrid"  version="0.1"  >
<UnstructuredGrid>
<Piece  NumberOfPoints="966" NumberOfCells="4153">
<Points>
<DataArray  type="Float64"  NumberOfComponents="3"  format="ascii">10.07384440300009 2.867652484362122 0.9988838334446792  9.93931560719645 2.815101466761392 1.051050733987825  9.972738172891157 2.934112266050224 0.9668503211896008  9.966072047269039 2.901635181611891 0.9128863177250769  9.934516069071915 2.781267878291238 1.001625738178947  10.06696030311994 2.833465962994294 0.9481019443133691  9.959425842429894 2.868856994805843 0.8590909179282473  9.929711494901305 2.747144366367842 0.9524412765447831  10.06008245655884 2.799001357269962 0.8975152002216805  9.95278325559406 2.835976620972172 0.8053732376148013  9.92490258874807 2.712907453786039 0.9033980831585973  10.0532050958024 2.764435935544013 0.8470299281852292  9.946129900526962 2.803116658790247 0.7516709527348717  9.920096470145698 2.678690890365685 0.8544063500451768  10.04632293512113 2.729890198317852 0.7965732375092558  9.939460190019917 2.770381152397388 0.6979083909238133  9.915300380269773 2.644616220544734 0.8053699015624201  10.03943943288159 2.695470892622834 0.7460583757039911  9.932749269500627 2.737852492527875 0.6439964423955952  9.910498489260396 2.610823167979525 0.7561635029332682  10.03251298238264 2.661270348854075 0.6953791571812216  10.19481257844674 2.809744342929746 1.020059488659643  10.15905506026988 2.725910017353736 1.085969805678843  10.05865846271482 2.76875844033121 1.067307503553064  10.05230722486923 2.734536464381002 1.019447774305598  10.15215520606293 2.691722562562689 1.039282604755108  10.18704876176698 2.77549394396123 0.9710205221928658  10.17927667814061 2.74102517403932 0.9221715315242937  10.14519964635995 2.657340109751457 0.9928195201822815  10.04593226164397 2.700080936157511 0.9718503759113888  10.17149678397162 2.70648272971731 0.8734226161829463  10.13822185348719 2.622890647071942 0.9464852057275117  10.03954387099833 2.665540875678467 0.9243889231146067  10.16372059100857 2.671966077661929 0.8247024320384952  10.13125721826391 2.588473138305201 0.9002038963499813  10.03316243897813 2.631034999094767 0.8769826539289877  10.15595557448229 2.637565012038036 0.7759339496605262  10.12434327570744 2.554191461664758 0.8538973746812526  10.02680985131729 2.596685348541171 0.829547289879725  10.14813240564908 2.603351290648383 0.7270376586068112  10.11745106892918 2.52015603588801 0.8074680551068063  10.02047886917021 2.56262459557945 0.781952467111882  9.350511439924658 3.162138770013453 0.8966186477687174  9.26965448208697 3.081672899924245 0.9191460833001595  9.263271739308633 3.238084433147525 0.8763435746775989  9.262872140308993 3.22601070431736 0.8051752274675313  9.271622758159587 3.060384006489111 0.8535791692480279  9.351187253587479 3.142651685476552 0.8292522679299522  9.26240853776925 3.213751180117589 0.733913560642102  9.273534846636771 3.038804546815204 0.7880334926727247  9.351807290098886 3.122882712186131 0.7618336724784768  9.261935947569997 3.20142038253765 0.6626000649462945  9.275432567309071 3.017092491956594 0.7224935656959957  9.35241632091868 3.103007129545416 0.6943829097834149  9.261493536319891 3.189077763420605 0.5912471214181007  9.277347716704959 2.995366508777518 0.6569394984423224  9.353051844496871 3.083132123176804 0.6269018665447744  9.261094845013268 3.176728999697758 0.5198536553581996  9.279296049802248 2.973695287403544 0.5913461455316951  9.353724886925367 3.063300209020748 0.5593783481323974  9.260764262830198 3.164364157280502 0.4484232670932624  9.281270745017054 2.952107981440859 0.5256783448076479  9.354456063229101 3.043507255540911 0.4917708227661201  9.080237711021361 2.893522927711913 1.005355680057042  9.000711149869074 2.83767445648032 1.037110542082258  9.00257713282733 2.949979667718978 0.9715234459800299  9.003738622348529 2.917445577691455 0.9131358420170691  9.001778035516782 2.802820622614381 0.9838453316914378  9.081144789381318 2.86045819393353 0.9492955683396157  9.08199722560939 2.827090334808742 0.8934280906023784  9.002809496475955 2.767707440580363 0.9308092620318847  9.00483688066152 2.884612512838711 0.8549033258405183  9.082812674231189 2.793595619573789 0.8376800395471681  9.003794465369024 2.73247061508124 0.8779307273165275  9.005898949728728 2.85165501749769 0.7967643709005591  9.083618248901201 2.760115805064863 0.7819844117171799  9.004752948517082 2.697252218387885 0.8251382351072292  9.006952612769849 2.818706249407749 0.7386751878168047  9.084451090602613 2.726760354965029 0.7262646939947003  9.008043840628719 2.785865873367932 0.6805762647790377  9.257879442574032 3.591159013944347 0.9030199296974351  9.266733287971041 3.497763852283948 0.877850130551697  9.146965131682423 3.500911066242058 0.8746005811692209  9.145845883275847 3.515332408103231 0.7995290042308756  9.269189491781457 3.508897321559913 0.8031180492487491  9.276087197668318 3.542335330581436 0.5782358056846384  9.256698162700216 3.673786383518599 0.6086226631729904  9.142159012423269 3.558658635240415 0.5737136815177279  9.143357317738964 3.544271367389051 0.6490791275963017  9.273768396372759 3.531236871130363 0.6533002951650895  9.256462608252876 3.69433723064919 0.5347664854371642  9.278501793026091 3.553343777532971 0.5030679345137707  9.14104506416871 3.572954830101217 0.49825413921107  9.256372460247624 3.714752355572168 0.4608331243106355  9.281101723235663 3.564249505208751 0.4278064295203984  9.140038679461398 3.587140248174871 0.4227158892209166  9.160170747239473 3.173109795920301 0.8907192016801886  9.163220849219673 3.158062961420822 0.8210537501547105  9.166214666111349 3.142762908410091 0.7513239881783267  9.169204001506944 3.127357181335034 0.6815664716145735  9.172228023206156 3.111936307163047 0.6117863718297508  9.175302701761087 3.096529715685377 0.5419742454869846  9.17843724107205 3.081132991820814 0.4721056232457567  9.133853566717406 3.742245173393607 0.6269837940528757  9.139270072511929 3.714828561206808 0.6992384443686697  9.128491505056788 3.769551088386543 0.5546325720877358  9.85185774129512 2.911757460360321 0.9939006603498605  9.847175327759908 2.879312249476642 0.9403954907264164  9.842498638695352 2.846546464394858 0.8870856532570887  9.837822860456761 2.813660094346977 0.8338745668729011  9.833141729845511 2.780791900521159 0.7806878891071518  9.828453310092838 2.748060318815519 0.7274449662327792  9.823752883394334 2.71556920362365 0.6740362605121265  9.847695615739813 2.727875111028909 1.11629520946713  9.702545002656825 2.790691499961276 1.080929238554814  9.818649464927089 2.826472518961221 1.051640428255898  9.815683624432513 2.793010056066469 1.001335639490827  9.700927523734594 2.757372995871647 1.031474393310399  9.845066466495563 2.694233333241985 1.069071243638798  9.812722381100185 2.759248040099919 0.9512890953324004  9.699315029833844 2.723760887413524 0.9822867652456457  9.842438869343168 2.660327690481051 1.022130500479531  9.80976301371825 2.725368784406286 0.9013878189975402  9.697704182304063 2.690030144119397 0.9332624432303274  9.839808760660933 2.626325958130546 0.9753666695272787  9.806806195947354 2.691514014777515 0.8515403338351936  9.696094762244559 2.656327625320703 0.8843051395934466  9.837187388156787 2.592365385238431 0.9286869473454841  9.803853587865341 2.657813666128577 0.8016500291869924  9.694485744978085 2.622790203920719 0.8353137609429636  9.834588459623598 2.558586582556873 0.8819939279308822  9.800883284500777 2.624406215250466 0.7515936791857923  9.692861928863529 2.589563617169488 0.7861644461718198  9.831983165156368 2.525147728811515 0.8351411432729851  9.466849198711449 2.578449723478639 1.230080434889293  9.355730603647537 2.546041600320267 1.250125225656905  9.418364833536177 2.652557687398792 1.176123933844778  9.419091734619204 2.619069819993297 1.129841456526107  9.356562913478541 2.51483043613526 1.204792538600141  9.467630978199917 2.546619642348887 1.18489352875721  9.419816063057526 2.585349640896604 1.083857637125432  9.35742362742322 2.483484375189541 1.159734510831088  9.468427599943173 2.514589483159476 1.139988217698223  9.420519489880126 2.551527269025766 1.038086908100783  9.358247374330997 2.452044765036721 1.114915927136846  9.469197479048869 2.482460412246461 1.095311801559923  9.421209352083586 2.517749519969346 0.992439510780298  9.359045264998674 2.420638358099793 1.070265525796408  9.469950848785535 2.45037133707343 1.050784694148836  9.42189790415885 2.484170737618682 0.9468039327809619  9.359848480483215 2.389425682718346 1.025686199396019  9.470703707350436 2.41847593805862 1.006304121815004  9.422580538183462 2.450956880694304 0.9010186978195266  9.360674223852151 2.358621322603519 0.9810214633753767  9.471445695185253 2.386975321054052 0.9617199036218199  10.16911179495576 2.896078986190219 0.9657255348985637  10.1611579758216 2.861645172953466 0.9142827472438497  10.15323102580535 2.826955279815269 0.8629897767030401  10.14531242434632 2.79218165614691 0.8117665866157199  10.13738378931533 2.757425834935403 0.7605597446770562  10.12942492818859 2.722763476676497 0.7092985953683225  10.12137298558559 2.688266854890169 0.6578843684760189  9.742920044118408 2.678218392577612 1.157415694315561  9.741494298258445 2.644909142970767 1.111370612533811  9.740076835306542 2.611348209615262 1.065628387926166  9.738656494682528 2.577692651003504 1.020084251648944  9.73723959967943 2.544081694430429 0.9746456610364885  9.735836760113202 2.510663076892862 0.9292082536873212  9.734435353382217 2.477610706915257 0.8836186249809862  9.309401897572878 2.643897165195396 1.180658337495722  9.310210978895581 2.610491935443497 1.134128388576574  9.311013093542249 2.57687528279427 1.087892606451222  9.31177761187015 2.543147885029733 1.04187828692542  9.312520638225898 2.509458662448447 0.9959977129169658  9.313268128523308 2.475964335322759 0.9501370727925305  9.314044500998317 2.442834221587371 0.9041294992976986  9.60952096140
[...]
<PointData  Vectors="f_16"> 
<DataArray  type="Float64"  Name="f_16"  NumberOfComponents="3" format="ascii">1.3485178588142282e-02 2.5868041530441163e-03 2.3144572680580157e-03  1.4688988942511019e-02 3.0844981269815036e-03 4.0513393205427193e-03  1.4018716346808445e-02 2.5042731985674182e-03 2.0732256086391679e-03  1.3643461414286739e-02 1.7782875096408854e-03 2.3001547305910143e-03  1.4325172228692614e-02 2.4598650768143954e-03 4.3619022737832079e-03  1.3028100462293095e-02 1.9433622680574932e-03 2.5694365272433497e-03  1.3323993220550810e-02 1.0844384438536757e-03 2.4477303582293975e-03  1.3996134711788318e-02 1.8459693961222906e-03 4.5737296022460971e-03  1.2626801652922610e-02 1.3294841767894946e-03 2.7398250491955955e-03  1.3034086148638647e-02 3.9084253297955044e-04 2.5444178820314568e-03  1.3687479097120833e-02 1.2144345000810028e-03 4.7127266471894058e-03  1.2254790582523083e-02 7.1388489043766568e-04 2.8557037861209784e-03  1.2750233614207015e-02 -3.3230033844600077e-04 2.6109420849361820e-03  1.3382453565587567e-02 5.3787830653274991e-04 4.8029231778375136e-03  1.1886682646208803e-02 6.9540658890601789e-05 2.9399063055623280e-03  1.2446601523233789e-02 -1.1123088931313204e-03 2.6658705212186037e-03  1.3063156812658230e-02 -2.1241788344934133e-04 4.8659122048246781e-03  1.1496596881088911e-02 -6.2903474923609330e-04 3.0153603130359564e-03  1.2092371532713437e-02 -1.9721189742482837e-03 2.7304538009722242e-03  1.2711382520296964e-02 -1.0684879910691711e-03 4.9148884665800715e-03  1.1057912007384839e-02 -1.4029328889807622e-03 3.1037142937113118e-03  1.2648748054683558e-02 2.3711031418182484e-03 2.1488542791178221e-03  1.3323781575970934e-02 2.6894616165336659e-03 3.5562664884826625e-03  1.3974804286662808e-02 2.9369262577658797e-03 3.8291425821216692e-03  1.3504163241311349e-02 2.3960975894004731e-03 4.1163206603164965e-03  1.2777966200398932e-02 2.2200830919884389e-03 3.8031003899144885e-03  1.2115436224238080e-02 1.8117310098654965e-03 2.3674123265203027e-03  1.1644069025241396e-02 1.2773634996029075e-03 2.5085471057914180e-03  1.2282082627763908e-02 1.7511644767865913e-03 3.9648560556992075e-03  1.3079329884125043e-02 1.8578921926759610e-03 4.3080262778884444e-03  1.1202598824252978e-02 7.4308338009451962e-04 2.6030091160149115e-03  1.1810413955766642e-02 1.2694213556837975e-03 4.0649646090352059e-03  1.2678502486629528e-02 1.3028323611159126e-03 4.4309369770141821e-03  1.0762802210606747e-02 1.8584181161429182e-04 2.6718081563020285e-03  1.1336242697488848e-02 7.5231613389464163e-04 4.1233522200304993e-03  1.2278131255087891e-02 7.0409928356554173e-04 4.5070859577602757e-03  1.0297195746554917e-02 -4.1770938804195338e-04 2.7354562447268862e-03  1.0832986640049008e-02 1.7615813188572339e-04 4.1602526537875013e-03  1.1854374605586446e-02 3.4784775792000855e-05 4.5584633762144741e-03  9.7960751952380493e-03 -1.0812362560752508e-03 2.8046492979673229e-03  1.0291452687931373e-02 -4.8684930731065650e-04 4.1898262725881047e-03  1.1377194227647231e-02 -7.2624055180847929e-04 4.6222444799998048e-03  1.7460463838834123e-02 1.8481979107293697e-04 3.5721315198277456e-04  1.8213248193229642e-02 -1.2736894758422158e-04 1.2768290754507704e-03  1.7959670722234485e-02 -4.9520437905349970e-04 -7.0971795093943875e-04  1.8163273790129664e-02 -1.3018172959464386e-03 -1.0094262785726347e-03  1.8509535631688983e-02 -1.0332684430905562e-03 1.2173114277375067e-03  1.7661313068799093e-02 -6.9531022839747702e-04 2.3006751698193689e-04  1.8351142607522731e-02 -2.0309147837763355e-03 -1.2850204250233711e-03  1.8775854238034743e-02 -1.8658829599823394e-03 1.1282438281593483e-03  1.7835483739882724e-02 -1.4980095521696913e-03 9.4804624695394164e-05  1.8531059976504047e-02 -2.7287722383992894e-03 -1.5411889035511685e-03  1.9033327007801727e-02 -2.6722862013394549e-03 1.0203269276071302e-03  1.8004140611492213e-02 -2.2762687058710440e-03 -4.8850202483714598e-05  1.8724641319418880e-02 -3.4246723729614188e-03 -1.7813408636543069e-03  1.9301208082669871e-02 -3.4864086245792406e-03 9.0564178488019729e-04  1.8186174199425711e-02 -3.0624060505781256e-03 -1.9926731379770328e-04  1.8949732969722480e-02 -4.1422007537497713e-03 -2.0060628702136172e-03  1.9601683835791226e-02 -4.3306716544711564e-03 7.9553775037135286e-04  1.8400271438541903e-02 -3.8795851325390501e-03 -3.5316425029737559e-04  1.9189217973476790e-02 -4.8938329638515453e-03 -2.2231760555366581e-03  1.9965573707999753e-02 -5.2244143225223597e-03 6.8697854683854166e-04  1.8648615698212110e-02 -4.7345216774229678e-03 -4.8856119533176670e-04  1.9746232430804783e-02 -8.4062068862728197e-04 3.5247821393753357e-03  2.0225712553778866e-02 -1.3141490859868877e-03 4.0559369845765518e-03  2.0349452904622721e-02 -1.7803403052633383e-03 2.3388874390199944e-03  2.0961360712004273e-02 -2.5665426509868957e-03 2.4766692594616691e-03  2.0908417444276999e-02 -2.0087377355981224e-03 4.3214915712226753e-03  2.0316170090540996e-02 -1.6299821039334882e-03 3.7486419427757841e-03  2.0861156330713584e-02 -2.3925002696984859e-03 3.8938125466319654e-03  2.1557521202623556e-02 -2.6973745256854173e-03 4.5074343427883561e-03  2.1548607899648194e-02 -3.3167195306926739e-03 2.5702698470965466e-03  2.1407376350333674e-02 -3.1581228621445669e-03 3.9826806555922261e-03  2.2209250136904526e-02 -3.4062765925362021e-03 4.6288856116475713e-03  2.2135191892839884e-02 -4.0618032489544006e-03 2.6178372145301411e-03  2.1956726015796582e-02 -3.9620823930997581e-03 4.0415885649057910e-03  2.2862743763522930e-02 -4.1640326909391321e-03 4.7123547043585448e-03  2.2722662972706389e-02 -4.8390195037940655e-03 2.6433999456151164e-03  2.2510500735394571e-02 -4.8285013855760240e-03 4.0981728937824332e-03  2.3304318819975009e-02 -5.6708657368010496e-03 2.6720770715181635e-03  1.6956762155041293e-02 -3.5541283631000334e-04 -3.5949907971690688e-03  1.7142222165862312e-02 -4.2681126067643267e-04 -3.0634150046532538e-03  1.8228182514672033e-02 -1.1638551830647978e-03 -3.2774455238802312e-03  1.8189011481342832e-02 -1.4904380683534470e-03 -3.9086955565878437e-03  1.7143098178749972e-02 -7.9819723226870617e-04 -3.6454454748997391e-03  1.6862396888934383e-02 -1.7735878284724060e-03 -4.8869098830162027e-03  1.6329544788570394e-02 -1.0864782888506340e-03 -5.4853133232639559e-03  1.7957810760731944e-02 -2.3743747372401733e-03 -5.1572883037755250e-03  1.8029920683127726e-02 -2.0814393579230948e-03 -4.8026095654067581e-03  1.6954454510487559e-02 -1.4530425445951909e-03 -4.5290295948244271e-03  1.6186703184061121e-02 -1.2836536823863346e-03 -5.7832013480061967e-03  1.6812377368850478e-02 -2.1070958920920957e-03 -5.2055384846358141e-03  1.7906830126742108e-02 -2.6800323943353271e-03 -5.4587561314220420e-03  1.6105685263611336e-02 -1.5087506646070698e-03 -6.0267674488710277e-03  1.6861286396057534e-02 -2.4645082822631640e-03 -5.4782290395920530e-03  1.7884271595569989e-02 -3.0148182947181759e-03 -5.6923365706221130e-03  1.8890728955074643e-02 -1.0409424790414666e-03 -1.7147743043364019e-04  1.9201024019816652e-02 -1.8908793616880461e-03 -4.0438750101317905e-04  1.9466937468532858e-02 -2.6422224618913338e-03 -6.2958147343617908e-04  1.9715604365184592e-02 -3.3532743642247578e-03 -8.4356423576508474e-04  1.9968186038006996e-02 -4.0612051601563465e-03 -1.0418508321060620e-03  2.0246830077008109e-02 -4.7900967925139405e-03 -1.2163159715716642e-03  2.0582812877904293e-02 -5.5822193179740952e-03 -1.3844971210606205e-03  1.6953530657088614e-02 -1.3012747077981101e-03 -5.7073612171146390e-03  1.7157229285748938e-02 -1.1823218781809421e-03 -5.3881419519611401e-03  1.6755786335124680e-02 -1.4433149521912317e-03 -5.9663478124679301e-03  1.4936861184867228e-02 2.7182274222190307e-03 3.1103837951634359e-03  1.4667707223304339e-02 1.9712790927172326e-03 3.3789313634200973e-03  1.4436322313627525e-02 1.2495463438266729e-03 3.5573516632905885e-03  1.4226423241481595e-02 5.2085626953812033e-04 3.6723888685992619e-03  1.4024387793405865e-02 -2.4700349079663638e-04 3.7469920787469592e-03  1.3814516804348077e-02 -1.0846722787813199e-03 3.7988328256961892e-03  1.3572047859356442e-02 -2.0178923234237473e-03 3.8425096001428361e-03  1.5520806640316649e-02 3.4737246309691702e-03 5.9576668913062939e-03  1.6141626747107684e-02 3.1819822253526236e-03 5.6743378758621907e-03  1.5395720423281602e-02 3.1176929236986805e-03 4.6004593846648411e-03  1.5155347497671454e-02 2.4467225855389291e-03 4.9204350013071722e-03  1.6024882889287242e-02 2.5207477231381117e-03 6.0196309289488100e-03  1.5231014538692245e-02 2.9294104022124785e-03 6.2883444237028093e-03  1.4934672334637064e-02 1.7835316975344305e-03 5.1402368694362204e-03  1.5918647101460365e-02 1.8629619895007554e-03 6.2576372954814604e-03  1.4957868533551685e-02 2.3767743087714614e-03 6.5083477757152501e-03  1.4728103390405770e-02 1.0995894118209003e-03 5.2834539689504663e-03  1.5821141905453924e-02 1.1768964798124363e-03 6.4132832890954825e-03  1.4694762450432025e-02 1.7890966254747508e-03 6.6426810482261983e-03  1.4527292412277678e-02 3.6430728119480829e-04 5.3725446786135177e-03  1.5732491679835144e-02 4.3220362934998568e-04 6.5094220153917529e-03  1.4433001295794244e-02 1.1382733820632283e-03 6.7116185861347006e-03  1.4323230966447380e-02 -4.5362782377276372e-04 5.4271017346765515e-03  1.5653322906036285e-02 -4.0286772188075629e-04 6.5657760690422317e-03  1.4163814582230256e-02 3.9224507717692712e-04 6.7352106305095727e-03  1.4104711158176511e-02 -1.3865897609559386e-03 5.4660002502114656e-03  1.5580526984619156e-02 -1.3621319320636348e-03 6.5952425027943446e-03  1.3886552113662987e-02 -4.7412944175936683e-04 6.7448172808856673e-03  1.7715526487778247e-02 3.1409045146215927e-03 9.4629546012127905e-03  1.8251246785340146e-02 2.5912772364284887e-03 9.8900060375955202e-03  1.7813816307851504e-02 2.7255819644114469e-03 8.3451425508255395e-03  1.8028059001702033e-02 2.2095730448605045e-03 8.6959724303176042e-03  1.8531077129325283e-02 2.2293544676627486e-03 1.0181097397570581e-02  1.7856221026643932e-02 2.7358455139868086e-03 9.7769042424668343e-03  1.8223117499291477e-02 1.6669975233223990e-03 8.9404572150699278e-03  1.8781061517641886e-02 1.8168133764447829e-03 1.0367365815237079e-02  1.7974915636153787e-02 2.2955118601238767e-03 9.9794290888427090e-03  1.8417194505494765e-02 1.0809024704423035e-03 9.0913733079685480e-03  1.9029760312233544e-02 1.3524307013667840e-03 1.0453528001526958e-02  1.8092748038558940e-02 1.8042992404556414e-03 1.0083190842553807e-02  1.8618890734812696e-02 4.2231001578048381e-04 9.1693098749357650e-03  1.9282084745130115e-02 8.1163972115966992e-04 1.0454328281892257e-02  1.8216490689685023e-02 1.2376277796106914e-03 1.0103833914843841e-02  1.8837357353566168e-02 -3.4011772705467273e-04 9.1986648871413730e-03  1.9542903945189118e-02 1.6509867854810705e-04 1.0387481301097234e-02  1.8355311887161531e-02 5.6474653079524779e-04 1.0059704870655727e-02  1.9083164596486398e-02 -1.2418393829492164e-03 9.2084667502450226e-03  1.9818632443433737e-02 -6.2140918736243618e-04 1.0275957127074435e-02  1.8521648124164344e-02 -2.5500047918992143e-04 9.9674233194839406e-03  1.2526944054332106e-02 2.2040115384113685e-03 1.2191085255254094e-03  1.2032693961317103e-02 1.5652954122744355e-03 1.4131306768439054e-03  1.1605998980656970e-02 9.6693603946218607e-04 1.5451014209096252e-03  1.1213758583554842e-02 3.7996459366191731e-04 1.6395916948645267e-03  1.0825299485307296e-02 -2.2265293572352318e-04 1.7168871781168724e-03  1.0412924881639940e-02 -8.6336932708706382e-04 1.7971680188316372e-03  9.9647136362994992e-03 -1.5549242412688830e-03 1.8934297233143508e-03  1.6229763275082392e-02 3.6321609556875236e-03 7.2707927320342473e-03  1.6046592510047759e-02 3.1331073768880585e-03 7.6139256468533995e-03  1.5871310707382617e-02 2.6154257017013188e-03 7.8427936771263643e-03  1.5701853681416536e-02 2.0555996535441103e-03 7.9782738377965519e-03  1.5536798081340219e-02 1.4256453719940704e-03 8.0393446430470864e-03  1.5376095286064956e-02 6.9276369826759099e-04 8.0459637381695460e-03  1.5219128747603370e-02 -1.7651817598553815e-04 8.0222095611072533e-03  1.8349395495152042e-02 2.1035666125416635e-03 8.3594731339810373e-03  1.8693028230279098e-02 1.5960127283266526e-03 8.7028066726424162e-03  1.9017798474841939e-02 1.0599652700734768e-03 8.9442013168204628e-03  1.9341154705082360e-02 4.7967207091644578e-04 9.0928327307372037e-03  1.9669212133307957e-02 -1.7329063421867770e-04 9.1703502055178188e-03  2.0007858930156715e-02 -9.2974005076160442e-04 9.2020296869953153e-03  2.0361834499984327e-02 -1.8245596226868098e-03 9.2179451160840347e-03  1.5114694019811491e-02 -3.2476623591238510e-04 -1.8390014554935524e-03  1.4067576599704798e-02 1.1963431532024061e-04 -2.8399303502097701e-03  1.4632950188319449e-02 5.5536349532716408e-05 -3.4492460214847879e-03  1.5203600264509813e-02 3.5341270827032954e-04 -1.5347808849308019e-03  1.3928860412228142e-02 -4.3091836827731465e-04 -3.1790561656249092e-03  1.5043872043881417e-02 -9.7340775723076206e-04 -2.1349181030421911e-03  1.4522805128608833e-02 -4.0344402746828517e-04 -3.8371495238643341e-03  1.3800648419814637e-02 -9.7466100182712584e-04 -3.4998605641771621e-03  1.4983448619483072e-02 -1.6195289022544624e-03 -2.4259060326534145e-03  1.4424706350108556e-02 -8.5612204981397235e-04 -4.1927824987868512e-03  1.3663302603553303e-02 -1.5305728449486163e-03 -3.8085491370194219e-03  1.4924276170075669e-02 -2.2852807518775288e-03 -2.7203100676759170e-03  1.4330450340477681e-02 -1.3223732345987959e-03 -4.5292757231513905e-03  1.3501232919003327e-02 -2.1098379562945976e-03 -4.1116200403383740e-03  1.4847925266663875e-02 -2.9833062676686783e-03 -3.0126164896546138e-03  1.4216411327506695e-02 -1.8249949645495229e-03 -4.8855546327488449e-03  1.5659733435489546e-02 -4.3811576409380265e-04 -2.5460648364662060e-03  1.5714550952624026e-02 1.6125190135629852e-04 -2.1490321156124054e-03  1.5613519664613201e-02 -1.0029681678888677e-03 -2.9131331029589747e-03  1.5577516968045416e-02 -1.5578262795470396e-03 -3.2554879889909417e-03  1.5553667812245589e-02 -2.1212707181583169e-03 -3.5857725984781469e-03  1.5529668811091690e-02 -2.7153294592860973e-03 -3.9464675616363194e-03  1.8966522798350108e-02 -2.4459386165077129e-03 -3.4660859239722141e-03  1.8110804778384594e-02 -1.7907903532393093e-03 -4.3932198800465932e-03  1.9508881320697009e-02 -2.7189091983597789e-03 -4.4288551943306477e-03  1.8919885446616113e-02 -1.9921782185818612e-03 -3.0169396450667953e-03  1.9462907041723661e-02 -2.9885671856963759e-03 -4.8559124691445387e-03  1.8999610389778269e-02 -2.8758904747989179e-03 -3.8490540722100255e-03  1.9411416697422221e-02 -3.2633197686635831e-03 -5.2245188773678347e-03  1.9042357362971031e-02 -3.3031258197895605e-03 -4.1855230574984843e-03  1.9340408916680759e-02 -3.5584627520704897e-03 -5.5340690127622131e-03  1.9117078863270871e-02 -3.7408081556616329e-03 -4.4770719919327460e-03  1.9233926888980599e-02 -3.8870444104839633e-03 -5.7765393470417857e-03  1.9255381192843188e-02 -4.1971160187850073e-03 -4.7273108667738812e-03  1.7973832770583259e-02 -2.3356095790227223e-03 -5.8663407992431129e-03  1.7776865350310735e-02 -2.5457267668276017e-03 -6.0744948827663823e-03  1.8335147940653232e-02 -1.0087132185706913e-03 -1.7212961052253625e-03  1.8512259675560677e-02 -1.6617540328700562e-03 -2.1666572969018007e-03  1.8633595882576917e-02 -2.2473148499631010e-03 -2.5576482138783938e-03  1.8733247283831436e-02 -2.7991632724176014e-03 -2.9002439433781909e-03  1.8843314371769167e-02 -3.3441217285315244e-03 -3.2051645411635206e-03  1.8993302478219690e-02 -3.8977200136264497e-03 -3.4762686917844958e-03  1.9233705374371506e-02 -4.4711568250299398e-03 -3.7281260360608210e-03  1.3944919352116423e-02 2.3268242958246863e-03 5.9494842036781209e-03  1.4412535132991429e-02 2.9726251714338281e-03 5.9608448255502053e-03  1.3432257809495040e-02 2.4148616119539878e-03 4.9252919805160573e-03  1.2800080304059082e-02 2.1455342423520557e-03 5.0900729943537896e-03  1.3846681671015184e-02 2.6829847875667265e-03 6.1834017295445678e-03  1.3296441923411020e-02 2.1615653139557666e-03 6.0895379428840667e-03  1.2221456862851527e-02 1.8577687876869474e-03 5.1807355815504707e-03  1.3327535755720845e-02 2.3690112344984630e-03 6.3150391266729765e-03  1.2704019707255926e-02 1.9640563481906174e-03 6.1532021133733992e-03  1.1664946318071639e-02 1.5420667996060657e-03 5.2100015554416923e-03  1.2827657515243958e-02 2.0193453316183383e-03 6.3717326272371639e-03  1.2132656578323927e-02 1.7299939977557040e-03 6.1508310147710393e-03  1.1098403356662536e-02 1.1853265318920534e-03 5.1884520439959793e-03  1.2319771442299845e-02 1.6194558251351626e-03 6.3652226956070887e-03  1.1548190357170989e-02 1.4520424683811895e-03 6.0879816615930392e-03  1.0486555584588055e-02 7.7144158181670938e-04 5.1253704092535804e-03  1.1772655564657886e-02 1.1489562532223932e-03 6.3040472123672498e-03  1.0911292050133062e-02 1.1184177962320499e-03 5.9669619748852409e-03  9.8126942724010950e-03 2.9304418664609941e-04 5.0183211981044036e-03  1.1154135689251573e-02 5.7280854817934551e-04 6.1919115300621934e-03  1.0178961011329261e-02 7.2497413263990381e-04 5.7905637121347742e-03  1.5808762005287615e-02 -4.7325305094398642e-04 -3.5124975512820043e-03  1.5734312469167653e-02 -9.0595639666038767e-04 -3.9139789815683945e-03  1.5669546983728855e-02 -1.3331929861408074e-03 -4.2773431608416736e-03  1.5629559086317170e-02 -1.7723632487174508e-03 -4.6198306146121564e-03  1.5632986233944973e-02 -2.2377067154270443e-03 -4.9689376232132359e-03  1.5656403058370180e-02 2.7019514690191340e-03 3.8153532598816978e-03  1.5515698227621284e-02 1.9364226074163569e-03 4.0994336208711310e-03  1.5387406702370897e-02 1.1925374700949294e-03 4.2914837322913747e-03  1.5269965695298768e-02 4.3788784600679373e-04 4.4159502707676792e-03  1.5161454451445164e-02 -3.5979617995213675e-04 4.4945508056492495e-03  1.5059111444353873e-02 -1.2327495861963189e-03 4.5443477692693754e-03  1.4959688316248674e-02 -2.2161500464789106e-03 4.5779450577213719e-03  1.9584601370891071e-02 -2.4327156749362239e-03 -1.7707212370913082e-03  1.9783369265416663e-02 -3.0517447123909213e-03 -2.0928678980495340e-03  1.9964071673626908e-02 -3.6391132980110059e-03 -2.3792615309097963e-03  2.0152280424083437e-02 -4.2268936352218610e-03 -2.6364408549174457e-03  2.0375894044951798e-02 -4.8338651591065341e-03 -2.8617634917849103e-03  2.0694306153196111e-02 -5.4633519978460020e-03 -3.0416479345467288e-03  1.4860097291325125e-02 2.7651634553326420e-03 7.1373709548605392e-03  1.4268651140399416e-02 2.6145299961206794e-03 7.3018478284855078e-03  1.3722171125848654e-02 2.4228976557162073e-03 7.3777574942825355e-03  1.3194128186624165e-02 2.1879751566411332e-03 7.3761121868361245e-03  1.2655072412273285e-02 1.9025081284541733e-03 7.3026100381778309e-03  1.2071328593995964e-02 1.5519840887660780e-03 7.1569818684270401e-03  1.1403746407517876e-02 1.1058269143862688e-03 6.9276926568359242e-03  1.2480679992487764e-02 1.8721848555171739e-03 -5.3197347065685663e-04  1.3489945995626204e-02 2.1658834829577003e-03 7.1991989057047757e-04  1.3375205378567980e-02 1.8959346378584871e-03 -2.9502436037379066e-04  1.3098952103891510e-02 1.4013659461424020e-03 8.3340257468907575e-04  1.2047032188331110e-02 1.1272292748385842e-03 -5.0706260364287794e-04  1.3008521799616268e-02 1.1080758233578095e-03 -2.9820070801925703e-04  1.2772597479943599e-02 6.8645729755988821e-04 8.8811866361737299e-04  1.1703015812348687e-02 4.5480598267029807e-04 -5.1233787014301404e-04  1.2721814687980252e-02 3.8664154443124511e-04 -3.3662743300155149e-04  1.2484445793247841e-02 -1.2634460852332298e-05 9.0752064238815231e-04  1.1402961397517111e-02 -1.9297105402970980e-04 -5.2772290475317592e-04  1.2475910553058019e-02 -3.1202376792448927e-04 -3.9196167248790122e-04  1.2205105287239797e-02 -7.2471702239801481e-04 9.1212665114274332e-04  1.1112090574009253e-02 -8.4227793574940201e-04 -5.4011416017153474e-04  1.2239723738929096e-02 -1.0178534945471740e-03 -4.5058081816717589e-04  1.1904558185750098e-02 -1.4726257527685