<?xml version="1.0"?>
<VTKFile type="UnstructuredGrid"  version="0.1"  >
<UnstructuredGrid>
<Piece  NumberOfPoints="931" NumberOfCells="3951">
<Points>
<DataArray  type="Float64"  NumberOfComponents="3"  format="ascii">6.397791301758152 2.431636428292702 0.9789209146794465  6.359100195725259 2.55852399384641 0.930853036232247  6.490759900755354 2.555750592865586 0.9303545729697634  6.487636620935438 2.534112714445409 0.8681240179432225  6.359579627090649 2.538781550145075 0.8683919668552917  6.39870687718155 2.407588164406428 0.9197221857719793  6.484463043078188 2.512412484120004 0.806070271723348  6.360059143496072 2.518972870378028 0.8060862391547905  6.399619596756936 2.383485867918646 0.8606745211530094  6.481255531719566 2.490670348983702 0.744173409848792  6.360531695452489 2.499120775935425 0.7439381442985865  6.400522894290213 2.359359180276407 0.8017885737765915  6.478035530807999 2.46893035912201 0.6824014872223551  6.36099905139127 2.479270887269859 0.6819171778555838  6.40142226546774 2.335242239939641 0.7430371386893613  6.474856186895607 2.447245105634996 0.6207368108758543  6.36148877482514 2.459472317015539 0.6200112085194742  6.402343445626413 2.311186027112399 0.6844058879090754  6.471802292262835 2.425687268546791 0.5591729732269181  6.362019995723365 2.43979319454933 0.5582167024192097  6.403306942696468 2.287273582770457 0.6259012696616246  7.265710871593158 2.028699415619498 1.080181509938484  7.154424053786584 1.999189660192914 1.110369026446491  7.213083577356434 2.122717654509046 1.037700169150654  7.20568980518121 2.09428788128828 0.982450704679547  7.145078804927564 1.969265247746307 1.056159032522505  7.258445685648654 1.999477898204909 1.02524995442615  7.197849574945541 2.065811251643989 0.9271597984935326  7.135273231378719 1.939266055804421 1.00201461622661  7.250741687486885 1.970161193834136 0.9702710283874519  7.189854721212983 2.037292279517957 0.8718326488782486  7.125285695845184 1.909234491569219 0.9478940005479379  7.242894407913056 1.940788414232399 0.9152512492570293  7.181901042577612 2.008735290479561 0.8164735353574606  7.115331940092511 1.879192452601333 0.8937673243331995  7.235098522055955 1.911375276650617 0.8601873978621158  7.174160169677406 1.980129585318944 0.761071722176457  7.105605237714195 1.849151872687635 0.8395956628160226  7.227515099590922 1.881923223737283 0.8050548603000819  7.166762810656818 1.951477574780643 0.7055745849501761  7.096276421034206 1.819121825831367 0.7853038000912642  7.220244302529994 1.852447154391085 0.7497658441568098  6.366586395423996 2.061530440976808 1.153164215797549  6.52806963598552 2.123123467033186 1.132478630526978  6.478333175533376 2.009110448860296 1.192871555650079  6.482429710708997 1.979414998253198 1.140156302438601  6.530094919520506 2.094267340208124 1.07830557374045  6.372338443277701 2.033520958317863 1.100057170229417  6.378196814065006 2.005485285194645 1.04711393047052  6.532110161217732 2.065397169568693 1.024324111655363  6.486567179932168 1.949736270312508 1.087671993555888  6.384114013670238 1.977474340757584 0.9943623172784719  6.534111686917257 2.036535690828228 0.970523964911235  6.490724329389269 1.920081423099535 1.035386961055582  6.390039595500721 1.949511559613327 0.9417634950023761  6.536099779936093 2.007704077877214 0.916887144399714  6.494886885067417 1.890463649439953 0.9832593689884199  6.39593098934338 1.921633049775709 0.8893109430423775  6.538133217606242 1.978964845085666 0.8633953168634505  6.499070384579991 1.860939559740645 0.9312914023450325  6.401695009368838 1.893911866843719 0.8370175308061242  6.540260392045887 1.950429308057869 0.8100663155847416  6.50324674005464 1.831639944289534 0.8795603793405878  7.089441677798713 2.122472448405671 1.0541931070135  7.079927241301728 2.093628749048746 0.9994904540616891  7.069979485553876 2.064745143206644 0.9448366847206101  7.05985542192626 2.035842398334516 0.8902174139361678  7.049756104866303 2.006932139284251 0.8356093477503618  7.039871222782495 1.978018442566312 0.7809792509947526  7.030385448622543 1.949086444058847 0.7262541459806851  6.389825687165458 2.181434657118738 1.094394590348907  6.394219152152285 2.154079785182964 1.039830626815867  6.398660004562691 2.126717501841038 0.9854804234823967  6.403137678156908 2.099370378362727 0.9313202569025708  6.407618225909756 2.072045232762626 0.8772986600120092  6.41208578142062 2.044800586627737 0.823417403230526  6.416491017329003 2.017724578835097 0.7696878661153139  6.653787102138409 2.268214122172215 1.052910247678555  6.535199123475923 2.255358360287075 1.063749974482521  6.615268797490034 2.356869371577974 1.004816735871048  6.611173232324918 2.328238126707262 0.9475269281505778  6.535473087912125 2.22609729526658 1.008497272202875  6.648327886054024 2.238092881632524 0.9977925051076791  6.642739724319901 2.207946545722412 0.9428326639222093  6.535712325152235 2.196832417491472 0.9534565777391718  6.606985648147139 2.299589293176698 0.8904409740877771  6.535914604021046 2.167565306609437 0.8985800036166166  6.637037606676 2.177799174842127 0.8880551224513689  6.602712888252097 2.270926076269126 0.8335122406666706  6.536096120622737 2.138317312812605 0.8438505749910475  6.631291076009069 2.147676321634088 0.8334107142998524  6.598414897948927 2.242295209170507 0.7767162412898004  6.62561295510889 2.11762560995497 0.7788719505268012  6.536323389988442 2.109156693105401 0.7892686823945626  6.594195690335488 2.213749151426105 0.7200405955495137  6.620164802275245 2.087742050130195 0.7244336801511295  6.536673089111281 2.080200891444382 0.7348410345704824  6.590168566293244 2.185372002074732 0.6634722241290331  6.249229098602153 2.446558344299073 0.9670793778615724  6.25172871711252 2.424884181542486 0.9071350551046363  6.254269843256044 2.403191036515537 0.847386127396175  6.256823385963905 2.381484925438705 0.7877832852224288  6.259376361839394 2.359793614246077 0.728308475736719  6.261921345311612 2.338153855091361 0.6689542054452613  6.264430567158199 2.316616052417512 0.6097288145662821  6.615305711976103 2.187711379408978 1.100273600596073  6.612064866412995 2.158014506797857 1.045419964891898  6.608731318387414 2.128315310618029 0.9908106379403749  6.605311879437469 2.098610258595677 0.9363806144064513  6.601847810798736 2.068929827361722 0.8820972954452362  6.598444801065434 2.039329029601144 0.8279405845659645  6.59529298925543 2.009937082712553 0.7739512243371577  6.554264878946384 2.457868413536515 0.9655665708678672  6.55084076154283 2.432827111303603 0.905613098845178  6.547352598325141 2.407733565406192 0.8458504492481647  6.543809685499962 2.382610785780661 0.7862573758478187  6.540242926646568 2.357506153553064 0.7267930138915876  6.536728995938248 2.33246373079602 0.6674360082278575  6.533370639096367 2.307555352178101 0.6081569258130614  6.499564533464329 2.357780356760104 1.011244415795027  6.498587755609291 2.330831368856075 0.9537060017432124  6.497569525847704 2.303859017185487 0.8963838531163524  6.49651236643615 2.276869327624922 0.8392363270122463  6.495435526019608 2.24989761226238 0.7822304311044278  6.494401012861077 2.222999236623772 0.7253441736904038  6.493516177415024 2.196258437776285 0.668558068028833  6.889247436518016 1.735928278239675 1.3364980763142  6.778192244004611 1.769165336474852 1.331800305760797  6.884658939488586 1.829686847020908 1.274741705180851  6.87559607398174 1.79504406887921 1.223398810539287  6.771848788916561 1.733830838441158 1.279613342019775  6.879775204946228 1.700026409352153 1.285130531607466  6.86995585666985 1.664189071248751 1.233954469553713  6.765254797225357 1.698612932757307 1.227626555980954  6.866202451788945 1.760458222763055 1.172275192848335  6.859932933639044 1.628393613285344 1.182950988509245  6.758489261924598 1.663450053232139 1.175823716282997  6.856592633575468 1.725889316660295 1.121312961806181  6.849885160583908 1.592645859249751 1.132072346269014  6.751697532225162 1.628343488622229 1.12417539046443  6.846949923346465 1.691358018398743 1.070470524252959  6.83999734942337 1.556966288721719 1.08129983441048  6.745038174161222 1.593321989722544 1.072671393691994  6.837471342020859 1.656892731616967 1.019713389521971  6.830533425397327 1.521400758693508 1.030619078593029  6.738756240015112 1.55842204085347 1.021315117222281  6.828392746873009 1.622575991273824 0.9690420994672611  6.68757020208665 2.640551510751099 0.8798428446253057  6.615534046174952 2.557287534828547 0.9202834600464269  6.554259491150917 2.670919742769819 0.8872256869757967  6.609377240862742 2.533593549303446 0.8588411526368651  6.546889625182208 2.653038590473419 0.8224489763624051  6.603133730057826 2.509860671627562 0.7975939033595908  6.671686464039203 2.601156112702838 0.753019071116581  6.539446010582439 2.635067589550057 0.7578246822629253  6.531959426115453 2.617037465911102 0.6933455784647731  6.59682587542255 2.486082304112418 0.7364924786644418  6.663625065049789 2.581385711818147 0.6897995488679878  6.524457490035138 2.59900851114667 0.6289768231981853  6.254697579332265 2.341232644697274 1.009085741982886  6.386813425369092 2.2972041657646 1.037037857116919  6.389719825912903 2.270843706947138 0.9805836770101259  6.258406824417345 2.317142626789217 0.9515635964964085  6.392658132686689 2.244473800103059 0.9243541047436987  6.26217927466493 2.293029997094462 0.8942014237223316  6.395607705980039 2.218101514866873 0.868300638911964  6.265982814147139 2.26892396979407 0.8370123478256252  6.398556677154528 2.191751370303148 0.8123955438594289  6.269791323152843 2.244839905925988 0.7799405805403736  6.401512319040099 2.165474485260654 0.7566169177343861  6.273579766305709 2.220813996179976 0.7229945590061684  6.404459732054483 2.139345474913469 0.7009500602830392  6.58115841034467 2.044053927222258 1.176497601449843  6.581053381526724 2.013996555880891 1.122832921311396  6.580891703079325 1.983952277774307 1.069403231341539  6.580679552091429 1.95392743830635 1.016173831800654  6.580446527557497 1.923941365027542 0.963
[...]
<PointData  Vectors="f_16"> 
<DataArray  type="Float64"  Name="f_16"  NumberOfComponents="3" format="ascii">5.1346113532663364e-02 -2.0677531489088716e-02 -4.7640525344787516e-03  5.1413790900403343e-02 -2.0854235567654172e-02 -5.3357071569925564e-03  5.0739872618669364e-02 -2.0540441042251462e-02 -5.3382307085042937e-03  5.0692329394795344e-02 -2.0824847175940495e-02 -5.5134550914619981e-03  5.1511867431945683e-02 -2.1127099008574367e-02 -5.5354516926162910e-03  5.1433176566378511e-02 -2.1030681473504072e-02 -4.8712899308739560e-03  5.0660028587760711e-02 -2.1106755969966279e-02 -5.7187376882481666e-03  5.1579685464072177e-02 -2.1399261661583610e-02 -5.7547636898234011e-03  5.1496282709126782e-02 -2.1378689457951409e-02 -5.0098146374350939e-03  5.0637127882885817e-02 -2.1391612993839432e-02 -5.9413226950170862e-03  5.1632802922859197e-02 -2.1675851245366792e-02 -5.9883500503587674e-03  5.1547462018516850e-02 -2.1731042859531386e-02 -5.1701558418118590e-03  5.0615841387070509e-02 -2.1686842030279829e-02 -6.1759428589216120e-03  5.1680270179216996e-02 -2.1962791614782016e-02 -6.2344093033674082e-03  5.1593863570989516e-02 -2.2096241012719352e-02 -5.3469149351773708e-03  5.0585496916933440e-02 -2.2001720852153541e-02 -6.4249723345852598e-03  5.1728874502604404e-02 -2.2267658004785414e-02 -6.4975762616841480e-03  5.1640676891029913e-02 -2.2485057423509237e-02 -5.5421277652027059e-03  5.0525722690212993e-02 -2.2350521997388316e-02 -6.7018445011638702e-03  5.1791295967585228e-02 -2.2599300430378440e-02 -6.7934895300853270e-03  5.1690626009619517e-02 -2.2915495185583279e-02 -5.7707624408207710e-03  4.5780180285612308e-02 -2.0421412466517415e-02 -5.7671363476247840e-03  4.7214190041984627e-02 -2.0348011474300154e-02 -4.9768431609668101e-03  4.6122056386666069e-02 -2.0473078574555277e-02 -6.3593539237233451e-03  4.5845146717759092e-02 -2.1031990304839335e-02 -6.5361838853971290e-03  4.6854528594154413e-02 -2.0937850919751508e-02 -5.0093314128791906e-03  4.5568464175976903e-02 -2.1031852174013446e-02 -5.9129534439103385e-03  4.5702644491136701e-02 -2.1519685256772812e-02 -6.6256184920544447e-03  4.6633548801747922e-02 -2.1462378884302455e-02 -4.9908818576632338e-03  4.5482220370340859e-02 -2.1554665291443491e-02 -5.9639613633448189e-03  4.5623603052170801e-02 -2.1952034734161189e-02 -6.6292551230908523e-03  4.6481249529044144e-02 -2.1942141684489276e-02 -4.9214063043346397e-03  4.5450685626545570e-02 -2.2016486158085980e-02 -5.9291218972993389e-03  4.5557493898118757e-02 -2.2341751125887755e-02 -6.5513783448931896e-03  4.6338974775538222e-02 -2.2391415795887600e-02 -4.7927990633313206e-03  4.5429197402034105e-02 -2.2435160488585591e-02 -5.8107401533331526e-03  4.5461640382939032e-02 -2.2694644907228900e-02 -6.3841328560106259e-03  4.6157806526131877e-02 -2.2820448153117043e-02 -4.5909251022045331e-03  4.5384400906461279e-02 -2.2821391573324624e-02 -5.6028209445755841e-03  4.5331895631104437e-02 -2.2990036665465015e-02 -6.1276341892195453e-03  4.5908558165240684e-02 -2.3228835906072148e-02 -4.2996370744554742e-03  4.5322101484816829e-02 -2.3153357082967244e-02 -5.3008073660878331e-03  5.1698906733696398e-02 -2.0011628901227423e-02 -2.2408472167504000e-03  5.1145426799515524e-02 -1.9761831117022365e-02 -2.7220464066881156e-03  5.1366781103088552e-02 -1.9522191681176568e-02 -1.6872139936051187e-03  5.1415180343003151e-02 -1.9986626036913025e-02 -1.5314704273501135e-03  5.1120037390564775e-02 -2.0216601330751944e-02 -2.6183519779653429e-03  5.1881325478489983e-02 -2.0468863377279316e-02 -2.1307914283429825e-03  5.2024670417740282e-02 -2.0931714125725094e-02 -2.0733258636507538e-03  5.1089055017962751e-02 -2.0676790950381579e-02 -2.5707274690519471e-03  5.1447928300179795e-02 -2.0462433740636783e-02 -1.4366666832299191e-03  5.2145897742172258e-02 -2.1406434824998891e-02 -2.0553826609876831e-03  5.1057191209268826e-02 -2.1148090612220602e-02 -2.5663667492594267e-03  5.1470389059893887e-02 -2.0954434655275397e-02 -1.3872859277753462e-03  5.2262013729274220e-02 -2.1903080731587969e-02 -2.0716048599793927e-03  5.1019482534991528e-02 -2.1639966036847473e-02 -2.5960185325925619e-03  5.1485486332767776e-02 -2.1470354944514429e-02 -1.3774771583446074e-03  5.2394177538702305e-02 -2.2435829118879539e-02 -2.1246636987238537e-03  5.0967342802092495e-02 -2.2168730769690812e-02 -2.6628017081958299e-03  5.1495111428438475e-02 -2.2025615101238561e-02 -1.4133257876068480e-03  5.2570677995397289e-02 -2.3025399861444081e-02 -2.2254106131819320e-03  5.0895733219108841e-02 -2.2761051656490991e-02 -2.7879874753413839e-03  5.1507785475973240e-02 -2.2650824806044974e-02 -1.5258470403350217e-03  4.7568081287658215e-02 -2.0411802238198221e-02 -5.7104955087143973e-03  4.7177173578608414e-02 -2.0939499633976955e-02 -5.7739097335309771e-03  4.6922823653725285e-02 -2.1418113258304373e-02 -5.7973167118188203e-03  4.6741242995177158e-02 -2.1860955658745830e-02 -5.7737517486689989e-03  4.6570144457443716e-02 -2.2276588293431650e-02 -5.6964108361054174e-03  4.6356224515767687e-02 -2.2668728754740863e-02 -5.5528297724363393e-03  4.6054905403100012e-02 -2.3036288955176145e-02 -5.3309774921187422e-03  5.1556076035591071e-02 -2.0246239356340089e-02 -3.1747406433571697e-03  5.1697394625340586e-02 -2.0682458566601003e-02 -3.1216388664396261e-03  5.1804087867287636e-02 -2.1119708926391298e-02 -3.1153892450746720e-03  5.1890721642005727e-02 -2.1566048074559807e-02 -3.1459241183018293e-03  5.1971148549562481e-02 -2.2030395263735025e-02 -3.2052255434788109e-03  5.2062479482101791e-02 -2.2528136415733035e-02 -3.2950256898393515e-03  5.2189434645608268e-02 -2.3077080505497921e-02 -3.4272980991871837e-03  5.0521424861403978e-02 -2.0018768484907721e-02 -4.1812309772896331e-03  5.0985950539192942e-02 -2.0080445140851836e-02 -3.7602928134405282e-03  5.0497596118005993e-02 -2.0231006416857888e-02 -4.6471094511766004e-03  5.0337965004470873e-02 -2.0625653720098457e-02 -4.6733357433706626e-03  5.0936850515066953e-02 -2.0506543714410318e-02 -3.7179571552895924e-03  5.0329865364973754e-02 -2.0444430381957823e-02 -4.1306481905978940e-03  5.0188972923332818e-02 -2.0867092216699835e-02 -4.1294924106198578e-03  5.0892315641600780e-02 -2.0930127546863447e-02 -3.7265743600372811e-03  5.0221056782206140e-02 -2.1015152478413367e-02 -4.7381948969556775e-03  5.0851039084210528e-02 -2.1360140408255630e-02 -3.7698117738983877e-03  5.0081827235752295e-02 -2.1294664358165315e-02 -4.1563276469226548e-03  5.0128169718634152e-02 -2.1408742230818109e-02 -4.8291984230584275e-03  5.0808546517457885e-02 -2.1807252415617488e-02 -3.8388829291426500e-03  4.9983522926438990e-02 -2.1736919844583060e-02 -4.2011313046367068e-03  5.0038819763647539e-02 -2.1818119580563525e-02 -4.9377382308317605e-03  4.9864350459988577e-02 -2.2208609914679236e-02 -4.2638691645612535e-03  5.0753901391163737e-02 -2.2290116725328608e-02 -3.9352995519359273e-03  4.9930133260536830e-02 -2.2258194965750315e-02 -5.0632802142704563e-03  4.9687405118378158e-02 -2.2733731666865209e-02 -4.3511811478910744e-03  5.0677107082192821e-02 -2.2838495260553968e-02 -4.0718146211956375e-03  4.9780937150583578e-02 -2.2733517575212987e-02 -5.1860934768493700e-03  5.2089045675752232e-02 -2.1157543902959371e-02 -5.0874100980993504e-03  5.2321110899548870e-02 -2.1493295978354227e-02 -5.2477711587635596e-03  5.2505311492308152e-02 -2.1824520067629617e-02 -5.4184748061366760e-03  5.2661992064381095e-02 -2.2159842571416094e-02 -5.6010215450272337e-03  5.2812835544626902e-02 -2.2505661414339892e-02 -5.7942612995971615e-03  5.2979015839701840e-02 -2.2867910129270402e-02 -5.9988730575613021e-03  5.3188783977659033e-02 -2.3251712553968924e-02 -6.2143660146270216e-03  5.0814330861925057e-02 -1.9827184010018362e-02 -3.4405655917369958e-03  5.0666853239647064e-02 -2.0272838507142576e-02 -3.3467342469582911e-03  5.0558074045050409e-02 -2.0724257322050015e-02 -3.3134939759321747e-03  5.0472683812256308e-02 -2.1182609992741484e-02 -3.3167831005585331e-03  5.0392838580866579e-02 -2.1657529195000993e-02 -3.3457871161760300e-03  5.0293185887293243e-02 -2.2164530411560846e-02 -3.3982217949643386e-03  5.0120709011434249e-02 -2.2738241744226961e-02 -3.5070601837030981e-03  5.0597428789230736e-02 -2.0392098623048919e-02 -5.0304601752777971e-03  5.0493852752755392e-02 -2.0738564812714348e-02 -5.1342122630760618e-03  5.0418186004680093e-02 -2.1078934229377334e-02 -5.2734730713227852e-03  5.0359287036803417e-02 -2.1422009783913468e-02 -5.4355512782817018e-03  5.0303877389464013e-02 -2.1777219551954545e-02 -5.6129326230546887e-03  5.0235867664094012e-02 -2.2155954174790032e-02 -5.8046003185752782e-03  5.0128836813315446e-02 -2.2567665189327488e-02 -6.0128886405470972e-03  5.0997872122957415e-02 -2.0355980518831231e-02 -4.3928595190336909e-03  5.0975404654298430e-02 -2.0748948326499660e-02 -4.4289225782005674e-03  5.0959866806006858e-02 -2.1136574490179076e-02 -4.5083293198076770e-03  5.0948566265551602e-02 -2.1528915896799419e-02 -4.6168947391102026e-03  5.0936445442255000e-02 -2.1936737507485270e-02 -4.7464574274661856e-03  5.0914501723530722e-02 -2.2373073960086930e-02 -4.8960936213728540e-03  5.0856295578641797e-02 -2.2855143687948578e-02 -5.0762899689108590e-03  4.9861224707214692e-02 -1.8908541451114168e-02 -3.8297705021319791e-04  5.0465125461092129e-02 -1.8748298888519928e-02 -1.5614796132497783e-04  4.9915679311708629e-02 -1.9195555742018720e-02 -1.4085236488171329e-03  4.9558327474561334e-02 -1.9705863949488141e-02 -1.1803596993580905e-03  5.0202093850162333e-02 -1.9242573857787919e-02 9.1106174011772851e-05  4.9538734840668244e-02 -1.9413446656724294e-02 -1.3509265772461117e-04  4.9308261631375465e-02 -1.9938040622346696e-02 7.7569989784435174e-05  5.0011398821459510e-02 -1.9766432369435011e-02 2.9148690050630725e-04  4.9298707604260160e-02 -2.0223956554371616e-02 -9.8975377398751200e-04  4.9129701185338527e-02 -2.0471824552037134e-02 2.6391187214346842e-04  4.9862132384356619e-02 -2.0309673317020580e-02 4.5230882037583563e-04  4.9093910025223786e-02 -2.0746661744237505e-02 -8.2331289531428883e-04  4.8956427769532081e-02 -2.1017289114210209e-02 4.3333201740323307e-04  4.9715286875647274e-02 -2.0874064794704529e-02 5.7990005526550327e-04  4.8895935273717384e-02 -2.1278204258573227e-02 -6.6890603225291576e-04  4.8738739108708483e-02 -2.1580150631920474e-02 5.9019994013372577e-04  4.9526063054844721e-02 -2.1463468101648155e-02 6.7446916092150238e-04  4.8652172343851913e-02 -2.1826269979447900e-02 -5.1881749636852254e-04  4.8418258554367113e-02 -2.2168510369319275e-02 7.3249625741677996e-04  4.9240903084592690e-02 -2.2075771365057763e-02 7.3596893341627747e-04  4.8316275416265576e-02 -2.2413233919148158e-02 -3.8248268554153160e-04  4.9310104263659199e-02 -2.0236055076419401e-02 -6.1312505671066823e-03  5.0050213956476297e-02 -2.0354401642951589e-02 -5.6188220225458167e-03  5.0150522197778373e-02 -2.0384201392629954e-02 -5.7943332562905188e-03  4.9869971268953199e-02 -2.0640964839249445e-02 -5.7822060381310164e-03  5.0006488564884141e-02 -2.0586016034827032e-02 -6.0334505166793053e-03  4.9743818116243656e-02 -2.0919183672373491e-02 -5.9710867962378539e-03  4.8879547349994647e-02 -2.0655371039578718e-02 -6.5977489032969846e-03  4.9926717367559284e-02 -2.0785177826896761e-02 -6.2930926898870964e-03  4.9876371615837661e-02 -2.0988825371770759e-02 -6.5639810277903360e-03  4.9649654582231417e-02 -2.1199572098207883e-02 -6.1721879836397989e-03  4.8747717112765571e-02 -2.0862793757301865e-02 -6.8345824022290266e-03  4.9832004323019943e-02 -2.1201292867645272e-02 -6.8438513923565853e-03  5.2097601265448261e-02 -2.1034684015832427e-02 -4.5349938191283790e-03  5.1501459103907118e-02 -2.0514252104577194e-02 -3.9991592138204817e-03  5.1628481509308086e-02 -2.0921728138747191e-02 -4.0173730056384848e-03  5.2351832538753362e-02 -2.1420385592639955e-02 -4.6188890606894285e-03  5.1722673216978640e-02 -2.1325853360333737e-02 -4.0755201436224880e-03  5.2553207718902213e-02 -2.1800168963076315e-02 -4.7260672266568110e-03  5.1798891234563167e-02 -2.1735610569676791e-02 -4.1623643330558659e-03  5.2726587909955526e-02 -2.2185167968428478e-02 -4.8498571071758905e-03  5.1869379071044379e-02 -2.2161747410721966e-02 -4.2718269928820234e-03  5.2894448399167800e-02 -2.2583061362669927e-02 -4.9874100456520267e-03  5.1944897400964238e-02 -2.2618554665514577e-02 -4.4040714625398769e-03  5.3079313534788009e-02 -2.3001087825432011e-02 -5.1379079608050941e-03  5.2040746149275563e-02 -2.3127066080245760e-02 -4.5678237154678416e-03  5.1064576248835147e-02 -1.9473853717964031e-02 -2.1346444892367581e-03  5.0974245095298999e-02 -1.9945375431454294e-02 -1.9869008543519813e-03  5.0903809088052830e-02 -2.0428038593630099e-02 -1.8995788263451922e-03  5.0844172019802063e-02 -2.0924507993416795e-02 -1.8567315199348479e-03  5.0782191119852403e-02 -2.1443529349714496e-02 -1.8502819023959276e-03  5.0697268900852237e-02 -2.1999911720589134e-02 -1.8836435549635137e-03  5.0540792602384761e-02 -2.2620184410795441e-02 -1.9783875847784660e-03  5.0486389389856626e-02 -1.9081648504883628e-02 -1.1648135410574554e-03  5.0205457545587348e-02 -1.9578900158822177e-02 -9.3897734910359371e-04  5.0006613326529586e-02 -2.0093103261482972e-02 -7.6267575878126458e-04  4.9850814990431015e-02 -2.0623137114334663e-02 -6.2444626146356257e-04  4.9698422855973458e-02 -2.1174273140654416e-02 -5.1723585256676296e-04  4.9501361027297512e-02 -2.1755118070424247e-02 -4.4153631637463029e-04  4.9193604918403293e-02 -2.2362370654640286e-02 -3.7480089190378694e-04  4.3600325656181826e-02 -2.0041941236430900e-02 -4.3288360504021885e-03  4.3417113434242281e-02 -2.0054091078683025e-02 -5.3761891293783960e-03  4.1889181671745303e-02 -1.9583997574727993e-02 -4.8839260757228518e-03  4.3589773484588312e-02 -2.0696802549236018e-02 -5.6054342965342974e-03  4.3790225310687832e-02 -2.0716254368180011e-02 -4.4513985561660460e-03  4.2319116660767077e-02 -2.0177264045993726e-02 -5.1003534489296740e-03  4.2739938225187048e-02 -2.0661274671415639e-02 -5.1785805495087349e-03  4.3796696988446855e-02 -2.1219303065576463e-02 -5.6969881254705697e-03  4.4009803095080180e-02 -2.1252540450559469e-02 -4.4406517984038191e-03  4.3160570047515438e-02 -2.1065101439815801e-02 -5.1366983542426997e-03  4.4024684185039686e-02 -2.1660805211846278e-02 -5.6746359902184480e-03  4.4254991381603395e-02 -2.1710123797367316e-02 -4.3313418234878012e-03  4.3582481706378934e-02 -2.1413228159002550e-02 -4.9894805745429906e-03  4.4261642485189247e-02 -2.2046000935074181e-02 -5.5487551724584588e-03  4.4510216078947659e-02 -2.2115487644252762e-02 -4.1294328346212581e-03  4.4006775484712067e-02 -2.1725538011558444e-02 -4.7422833704613004e-03  4.4498663863083383e-02 -2.2396389473989326e-02 -5.3237317890065814e-03  4.4769549000603655e-02 -2.2486283878468107e-02 -3.8365456433574045e-03  4.4523090736384704e-02 -2.1909273869708673e-02 -4.4335323150253136e-03  4.4806339152465041e-02 -2.2630751484734004e-02 -5.0289429946278408e-03  4.5121272255986437e-02 -2.2756408607286199e-02 -3.4902575552470147e-03  4.3360857414816385e-02 -2.0109616636634572e-02 -8.2492749942625152e-03  4.3045329316204813e-02 -1.9823362306549144e-02 -8.5834444076303539e-03  4.1891881823816216e-02 -1.9675215271729746e-02 -8.4946118737612968e-03  4.2112392337048915e-02 -1.9981156627821937e-02 -8.9593050275080070e-03  4.3056893837703676e-02 -2.0090236382743602e-02 -9.0567290794034520e-03  4.3386885321161181e-02 -2.0501048954169862e-02 -8.6613513427818683e-03  4.2345727210619084e-02 -2.0232342934297119e-02 -9.2213978447813188e-03  4.3129623209613048e-02 -2.0322143128387603e-02 -9.3474157627622435e-03  4.3484839429262227e-02 -2.0830561686479249e-02 -8.8929471836713646e-03  4.2583715974101578e-02 -2.0436737462311439e-02 -9.3390934943264909e-03  4.3228646056296970e-02 -2.0516737047989713e-02 -9.5030578004698333e-03  4.3610361261303236e-02 -2.1108541693287908e-02 -8.9919652341724776e-03  4.2819280932454164e-02 -2.0591609975265251e-02 -9.3439406863529539e-03  4.3331192698406490e-02 -2.0669087836046013e-02 -9.5537499731770479e-03  4.3739128786239437e-02 -2.1334535589428268e-02 -8.9834156751992765e-03  4.3034660785199623e-02 -2.0675849952181965e-02 -9.2643601706824813e-03  4.3421773324487156e-02 -2.0768719262254827e-02 -9.5171091309528832e-03  4.3854054533226661e-02 -2.1500810350631380e-02 -8.8778733710588066e-03  4.3252824895779439e-02 -2.0578666867075789e-02 -9.1599522283260272e-03  4.3492666911584384e-02 -2.0742455897905982e-02 -9.4423681409387585e-03  4.3976007923529535e-02 -2.1508413633853595e-02 -8.7332183530895811e-03  5.0871158214299904e-02 -2.0617173675149505e-02 -5.5910388736551018e-03  5.0856320951174351e-02 -2.0823083299984786e-02 -5.8234829078927502e-03  5.0848059974030392e-02 -2.1034572036236012e-02 -6.0852657735599308e-03  5.0844208104779916e-02 -2.1250488265417262e-02 -6.3593346059872486e-03  5.0839257297264705e-02 -2.1474155560444057e-02 -6.6418365670600343e-03  5.0822695979868659e-02 -2.1710953212215979e-02 -6.9364002498016157e-03  5.0769884551366509e-02 -2.1981898764307194e-02 -7.2871579969164893e-03  5.2680118576746697e-02 -2.1484957803850527e-02 -2.8685687672201500e-03  5.2884730175889474e-02 -2.1940837377505035e-02 -2.8782865771449155e-03  5.3085638117970596e-02 -2.2412932569807031e-02 -2.9111914917751489e-03  5.1949300133524570e-02 -1.9495115506059646e-02 -1.5617318923245692e-04  5.1862815227789183e-02 -1.9825481863199653e-02 -1.3323008876274143e-03  5.1490186120183939e-02 -1.9252056549652473e-02 -6.5387795141614419e-04  5.1581741934443981e-02 -1.9722893240870596e-02 -4.6759955520930628e-04  5.2093181055540477e-02 -2.0291189812949448e-02 -1.1806052161900183e-03  5.2201488983150586e-02 -1.9960584385110530e-02 4.1262297331252690e-05  5.2279147187766786e-02 -2.0768478717597596e-02 -1.0828594870633925e-03  5.2403372001874747e-02 -2.0444610545831833e-02 1.8319187182275597e-04  5.1654244348659756e-02 -2.0212254735032950e-02 -3.4383533614747570e-04  5.2440390863644069e-02 -2.1261955049852330e-02 -1.0272312912129346e-03  5.2583475217470463e-02 -2.0950461328811336e-02 2.7709793778028991e-04  5.1713627644321365e-02 -2.0721927273993232e-02 -2.6892692402745775e-04  5.1766120151593271e-02 -2.1257608718446147e-02 -2.3786904374391654e-04  5.2597822957771830e-02 -2.1777797722228966e-02 -1.0091952878613394e-03  5.2759269713504163e-02 -2.1481602462707802e-02 3.2942588443841291e-04  5.1819445296323742e-02 -2.1830240881772590e-02 -2.5752571533227343e-04  5.2777724553127001e-02 -2.2327003203969003e-02 -1.0301731221189763e-03  5.2957976498925224e-02 -2.2044919098898542e-02 3.3820621878172231e-04  5.1890868529935963e-02 -2.2457210496520157e-02 -3.5159715542028628e-04  5.3017027792113876e-02 -2.2918527103252449e-02 -1.0955838231883675e-03  5.2083024684080298e-02 -2.0808606961387713e-02 -3.7644587615331929e-03  5.2353027328344959e-02 -2.1229626983272073e-02 -3.7732229347805179e-03  5.2567844705434262e-02 -2.1650537074574056e-02 -3.8156344470152200e-03  5.2751949857896684e-02 -2.2077532390138679e-02 -3.8817705675316121e-03  5.2931903702567708e-02 -2.2518634899798887e-02 -3.9651453813939076e-03  5.1724896125032636e-02 -1.9986201524577966e-02 5.1734791267323422e-04  5.1167782373325081e-02 -1.9905511159581699e-02 1.1761353417995888e-04  5.1802351505493699e-02 -2.0505414043073076e-02 6.1748307770994769e-04  5.1143912306485351e-02 -2.0433142315894260e-02 2.1266195010800768e-04  5.1874219759489741e-02 -2.1052678113608867e-02 6.7098642796605131e-04  5.1111870900951012e-02 -2.0988555241025535e-02 2.6150744365004955e-04  5.1948710497242541e-02 -2.1636690806864152e-02 6.7065293715321342e-04  5.1057971957896249e-02 -2.1583129360581873e-02 2.5530883944503875e-04  5.2036361365684604e-02 -2.2273466508076711e-02 5.9312230648524112e-04  5.0968633526048690e-02 -2.2230105154158408e-02 1.7531614153720948e-04  4.4758497187544086e-02 -2.0287283868956615e-02 -8.0922887789071918e-03  4.4578386342999536e-02 -2.0662376194724105e-02 -8.4523992504230653e-03  4.4516762694353756e-02 -2.0988699962630933e-02 -8.6680428528862780e-03  4.4506698617906335e-02 -2.1273875780600825e-02