<?xml version="1.0"?>
<VTKFile type="UnstructuredGrid"  version="0.1"  >
<UnstructuredGrid>
<Piece  NumberOfPoints="985" NumberOfCells="4176">
<Points>
<DataArray  type="Float64"  NumberOfComponents="3"  format="ascii">8.123963870888062 3.031974882518874 0.8525083330028909  8.062703390031361 2.955567925177228 0.8521412388386504  8.032128368178475 3.092276104198452 0.8458160966112692  8.037936290068743 3.093385738973185 0.7766207560153507  8.073565353376337 2.944767355376157 0.7857748748764195  8.133079056443346 3.026177435772532 0.7841489845661386  8.084464375073898 2.93391195261643 0.7194425315704228  8.142239769194484 3.020306137171641 0.7158048174275504  8.043729862777251 3.094459485787887 0.7074106971852143  8.151438911859241 3.014370591868898 0.6474893197501572  8.095401095383085 2.923007395622081 0.6531549802706634  8.049548975826514 3.095473060358844 0.6381904452000667  8.160669442654651 3.008385973708942 0.5792022167337173  8.10635993687753 2.912055245952138 0.5869036493941394  8.055398117026648 3.096429650902681 0.5689699871181255  8.169922566881707 3.002367963514136 0.5109367073323179  8.117330192871481 2.901063805497584 0.5206816208900307  8.061277839457814 3.097331523933728 0.4997522991739667  8.179194589204972 2.99632815773972 0.4426932636569148  8.128298304375338 2.890050980044395 0.4544774168028328  8.0671952496579 3.098179490855676 0.430535374745681  8.892112911961314 3.413147062187461 0.8784869437777838  8.795603031922198 3.304520121808256 0.8751292726293461  8.781972346306633 3.474217356819844 0.9048787849713804  8.775085013613895 3.489883018951054 0.8310499827243478  8.786052251999765 3.305880802759257 0.8014439402600004  8.883053660742265 3.427541230832335 0.8045777996585735  8.76814180745747 3.505608063357051 0.7571349844141272  8.776461413720336 3.307208473822248 0.7276767956774568  8.873924264858873 3.441983819536168 0.7305696705173041  8.761185393055023 3.521321036985004 0.6831489123341739  8.766866277219565 3.308466093788831 0.6538605651707685  8.864780487069117 3.456391912367287 0.6564738452050449  8.75424877615745 3.536976940321967 0.6090985790397927  8.757290530967685 3.309656326218314 0.5800137037195975  8.85565524477567 3.470732352043029 0.5823086028645597  8.747353729641274 3.552545488784046 0.5349825923227662  8.747754464109086 3.310781578404282 0.5061392280164253  8.846567050057155 3.484980938487497 0.5080780663312883  8.740474433796612 3.567986477056323 0.4607958403906466  8.738273892225832 3.3118247077079 0.4322225138742335  8.837501500802297 3.499114543745765 0.4337973580064732  8.277449772338057 3.447060798235477 0.9049939228936621  8.220254459799055 3.358789680648172 0.8899929707808734  8.167128769607853 3.481188653005215 0.925955806180787  8.162342799559186 3.511823100261368 0.8592708430980502  8.218898701594661 3.376824633465779 0.8194411109663139  8.275300411786601 3.471882670452947 0.8350326026556653  8.157545079327889 3.542472741879122 0.7925317681955457  8.217541472197 3.394848986769978 0.7488328213080975  8.273128745175145 3.496712202399843 0.7650136876252358  8.152751432848936 3.573093693539084 0.7257232603944779  8.216201294679317 3.41282321928071 0.6781695958236311  8.270968201809849 3.521502210072502 0.6949269154992458  8.147964802312044 3.603673476893563 0.6588397016769867  8.214886197214435 3.430737661833623 0.607459396451157  8.268824029810451 3.546237097457974 0.6247710373634306  8.143180615026475 3.634204759750125 0.591875526319812  8.21360053678152 3.448586139450126 0.5367091896179538  8.266692254362844 3.570913409809688 0.5545349274490922  8.138361336446382 3.664665211413308 0.5248368024388311  8.212334915796848 3.46635526286282 0.4659217240700014  8.264595555934998 3.595522196875867 0.4842184622110968  7.914583213520623 3.026891808092581 0.8315482885395671  7.92291789465583 3.025693483221596 0.7633375105642373  7.931239522704056 3.024479396107608 0.695118126586904  7.939578599507342 3.023227154275873 0.626892608583617  7.94794196290166 3.021922209900048 0.5586667077743549  7.956329683852723 3.020556476741135 0.4904441610319007  7.964751531344106 3.019124643098418 0.4222315249107816  9.140038679461398 3.587140248174871 0.4227158892209166  9.256372460247624 3.714752355572168 0.4608331243106355  9.123193814811097 3.796720357382269 0.4821923619888018  9.128491505056788 3.769551088386543 0.5546325720877358  8.091894663020534 3.404190209052431 0.8992500980843563  8.090390479107034 3.429599997277939 0.8312686574340469  8.088869580308577 3.454988468027453 0.763224148191457  8.08735312095774 3.48033794207398 0.6951244546713511  8.085846994934265 3.505637975285707 0.6269645155808111  8.084342711163599 3.530878825909896 0.5587324293810818  8.082853597728636 3.556053676686236 0.490402174171973  8.688842736335692 3.3817933049061 0.8926705857355368  8.686637093596859 3.391102015580147 0.8185865464468886  8.684375019573654 3.400412065831828 0.7444115039723543  8.682111600381543 3.409673686629503 0.6701836490789789  8.679871479227206 3.418871210051885 0.5959090257631656  8.677670652927311 3.427992275671195 0.5215831627826015  8.675544525815496 3.437039083876095 0.4471814990152221  8.710193101043014 4.090422024821722 1.292937414167217  8.851699482370449 4.106844196563225 1.26371754011219  8.784602704513889 4.150843498321073 1.391042412136392  8.863713397737618 4.042471805275261 1.302634377542037  8.771493836647528 4.217572563826119 1.361092085009697  8.69664046689187 4.154792053521359 1.256480117277977  8.839770892509003 4.171169007916782 1.224927231872021  8.65612558779036 4.347471305162714 1.147147122598396  8.804101812288026 4.36366875774703 1.108643810504473  8.732361280168684 4.417132087565784 1.271357068380946  8.816003224131565 4.299599006256977 1.147437643468715  8.719218027825645 4.483413407854802 1.241357975936073  8.642482539226501 4.411480306567133 1.11060100367805  8.792168465629654 4.427596792242667 1.069780233564092  8.786713071919468 3.979818080705737 1.236650371249858  8.72390637190086 4.025993198228575 1.329497282865088  8.774474422262843 4.041042261115925 1.192302267243713  8.762337403529735 4.102236530366576 1.148100260244682  8.750242082672559 4.163386451218793 1.103937550162154  8.827884197498031 4.235425881426727 1.186186468852436  8.683155376348319 4.219099077054966 1.220058798470216  8.738149600309036 4.224469993036029 1.059754964159451  8.6696699985309 4.283333203400014 1.183624049932796  8.726027758900386 4.285462552193581 1.015514329784024  8.713855593860739 4.346325381173418 0.9712051344655859  8.909170683370716 3.29943028069354 0.8553142090233061  8.903793745924816 3.297302508749781 0.7803667336674731  8.898355108002605 3.295110568988896 0.7053342817379795  8.892915522762301 3.292851295539009 0.6302712399992838  8.887501921267933 3.290534139410787 0.555180969262683  8.882135222105706 3.288164895870832 0.480056619814562  8.876826816950969 3.285745659546069 0.4048861299209668  8.835747913096137 4.423935841610719 1.23242074301525  8.822987966159559 4.490358895093486 1.201070034248767  8.759381886919138 2.904293554208575 0.9840416912954976  8.626830271431487 2.918088393777086 0.9667385153313008  8.704455757854367 2.979728135882777 0.946848870571699  8.709542994650763 2.954818561700113 0.883961623407181  8.633784496826729 2.890017406701415 0.9067898502238135  8.764122423356286 2.874060402292887 0.9256547402479447  8.71464837221758 2.929681309199712 0.8212208893703108  8.640786729268735 2.861741225058967 0.8470271015490106  8.768877903333449 2.843605018804088 0.8674673675796505  8.719747513843046 2.904427036565001 0.7585894963099664  8.647800186216646 2.833369918721152 0.7874034968424999  8.7736249955712 2.813055140660328 0.8094206370731039  8.724837695850695 2.879131876027213 0.6960348356574191  8.65480152991363 2.804984694117684 0.7278785756374202  8.574019856645045 3.436862076111303 0.9007443228414503  8.604934813623402 3.321878284659507 0.8864962150813526  8.485061825753126 3.30576532136139 0.8852709499190943  8.488727437525352 3.311359386458045 0.8121667397573062  8.606593875618664 3.326348780003422 0.8126534144859547  8.575165117104477 3.451526781960533 0.8268770272538647  8.492385576390882 3.316884604420676 0.7390089934576591  8.608229005535266 3.330752902643704 0.7387552940085713  8.576259530473004 3.466189337190683 0.7529503182015949  8.496068402143969 3.322338013236311 0.6658133200203091  8.609879613279308 3.335087426494136 0.6648203578188888  8.577359888022094 3.48080925184717 0.6789719586705859  8.499787705350252 3.327726061043014 0.5925935751221779  8.611563331340756 3.339355753667779 0.5908570101711603  8.578487952899577 3.495365642858038 0.6049420256707125  8.503552337556236 3.333055653618419 0.5193543137810154  8.613294010345182 3.343563366041725 0.5168640554936781  8.579664567062867 3.509849656372699 0.530857354528303  8.507372406094685 3.338333229496735 0.4460941730609926  8.615083571545759 3.347715698516266 0.4428336269340089  8.580949579918164 3.524252007556855 0.4567192153758087  8.686981721916991 3.938484914059213 1.210231635811987  8.673638972673492 3.998578323604856 1.165049882185285  8.660427090279711 4.058658509002393 1.119958336623207  8.647261246782957 4.1187095190213 1.074894518849855  8.634094668566618 4.178708664059471 1.029804766742607  8.620891099636165 4.238626547336271 0.9846609853853808  8.607602663741728 4.298426947627657 0.939443261436531  8.454999712220305 3.420067995989893 0.8898028170783477  8.454233074494784 3.437950219647133 0.8168695127900659  8.453450971799908 3.455819752463722 0.7438793372972559  8.452690404467363 3.473634587364971 0.6708444982176174  8.451961853797377 3.491381685209977 0.5977569931274349  8.451275347159223 3.50905374991899 0.5246032875093317  8.450649907725191 3.526645477432491 0.451375951984978  8.051782461690079 3.531072474244143 0.9662635228934087  8.04735367836607 3.568239898151546 0.9042008497377525  8.042895244087664 3.605405966203535 0.8420751704595427  8.038424046274196 3.64255738450228 0.779874921465403  8.033943148789577 3.679686346000965 0.7175967429476031  8.0294450570916
[...]
<PointData  Vectors="f_16"> 
<DataArray  type="Float64"  Name="f_16"  NumberOfComponents="3" format="ascii">2.9262388502213254e-02 -1.1217111251673725e-02 -4.7473136343423334e-03  3.0195558904231940e-02 -1.2169521614076981e-02 -5.1711574290350427e-03  3.0248086947710182e-02 -1.1931117592432592e-02 -5.2840411772627945e-03  3.0721460961544302e-02 -1.1891973695786923e-02 -5.6861866971350400e-03  3.0955162249457806e-02 -1.2263748133791339e-02 -5.4716909140803786e-03  2.9909574315269818e-02 -1.1310843845210007e-02 -5.1152777874774111e-03  3.1660118735197099e-02 -1.2349167298568759e-02 -5.7086273928255542e-03  3.0514977113204778e-02 -1.1399276587766871e-02 -5.4062137016528886e-03  3.1189898507421415e-02 -1.1872248855875948e-02 -6.0363414041325831e-03  3.1093792953383981e-02 -1.1476024613348432e-02 -5.6540667377332557e-03  3.2335515723650149e-02 -1.2425439481800417e-02 -5.9032766488461589e-03  3.1637318849689448e-02 -1.1859206795997994e-02 -6.3384572668600406e-03  3.1659360395244245e-02 -1.1545698112102626e-02 -5.8732801461950299e-03  3.3003178599779803e-02 -1.2491037856298771e-02 -6.0629747814324540e-03  3.2067358719679945e-02 -1.1845577759222715e-02 -6.6032644836910492e-03  3.2225396799466913e-02 -1.1610489379161775e-02 -6.0711995073615037e-03  3.3676876678215971e-02 -1.2539875509555277e-02 -6.1962987509052506e-03  3.2487054108722387e-02 -1.1826153334410693e-02 -6.8432666215874618e-03  3.2788123842680865e-02 -1.1663333595986890e-02 -6.2541140542494312e-03  3.4344553989312514e-02 -1.2546902047680206e-02 -6.3092152919054338e-03  3.2893708373442694e-02 -1.1801596170838178e-02 -7.0808945427600122e-03  2.0989994749424892e-02 -3.1559177924421794e-03 -2.9761466487669822e-03  2.2014711854489940e-02 -4.1718455136503345e-03 -2.3965177159078121e-03  2.1817819637248059e-02 -3.9191386407230180e-03 -3.3592263908336396e-03  2.1698153114132514e-02 -4.0983250733130526e-03 -3.8782908914756597e-03  2.2228591921582948e-02 -4.5748104152691284e-03 -2.8927032752829179e-03  2.0917942372982907e-02 -3.4868556283222420e-03 -3.5704124579367708e-03  2.1659784279071025e-02 -4.2479045040872791e-03 -4.3716014662146512e-03  2.2525566729481580e-02 -4.9963348173383262e-03 -3.3547601200855687e-03  2.0973478847466018e-02 -3.8048174059262135e-03 -4.0831282826432501e-03  2.1638792215095577e-02 -4.4065316724701039e-03 -4.8027623486493198e-03  2.2827232235943257e-02 -5.4095157663135050e-03 -3.7723048988594051e-03  2.1046207615045137e-02 -4.1065112416126710e-03 -4.5321552121754729e-03  2.1613874234927725e-02 -4.5800752412564795e-03 -5.1732445271939435e-03  2.3107877182053493e-02 -5.8231162315622023e-03 -4.1489367712707042e-03  2.1102448662036741e-02 -4.4087516561446332e-03 -4.9295664683290195e-03  2.1566199670973341e-02 -4.7728867748655247e-03 -5.4975577815140350e-03  2.3329699328182615e-02 -6.2494676451737329e-03 -4.4968887893806824e-03  2.1110501380286834e-02 -4.7273050021421625e-03 -5.2799999119307085e-03  2.1451278411793912e-02 -4.9852100567368074e-03 -5.8074797693157361e-03  2.3377382366304992e-02 -6.7076449532430041e-03 -4.8317858434658353e-03  2.1017613513441124e-02 -5.0874631039691852e-03 -5.5598561229999672e-03  2.6746779469612722e-02 -8.4354329235842174e-03 -4.1084801560589447e-03  2.7533477607923993e-02 -9.2214073125833178e-03 -4.2376379688856842e-03  2.7854184778095311e-02 -9.3990804746974677e-03 -4.1467625441291740e-03  2.7606646548289707e-02 -9.1291900916575727e-03 -4.5130640172887961e-03  2.7547870159910535e-02 -9.0935620655586136e-03 -4.7209484220542162e-03  2.6603961383172937e-02 -8.2552917376332632e-03 -4.5689785667881160e-03  2.7417906437368352e-02 -8.8996876347402377e-03 -4.8415906633245400e-03  2.7606294981376699e-02 -8.9934156592476056e-03 -5.1402671356020864e-03  2.6490733653640530e-02 -8.1028994224690652e-03 -4.9615971377942906e-03  2.7237350498460842e-02 -8.6875774377349283e-03 -5.1452903825153651e-03  2.7658207393065619e-02 -8.9103637903558616e-03 -5.5103062218234281e-03  2.6376095193811677e-02 -7.9681756595601661e-03 -5.3136425842984789e-03  2.7032941903282409e-02 -8.4807654094810839e-03 -5.4282323926903306e-03  2.7688329867963272e-02 -8.8348148198819174e-03 -5.8461418077429090e-03  2.6238935375606544e-02 -7.8415588826299728e-03 -5.6355896146569190e-03  2.6775377258317818e-02 -8.2713386900651244e-03 -5.6896826748683259e-03  2.7681790765778484e-02 -8.7618702719101989e-03 -6.1532201018591973e-03  2.6064858178452437e-02 -7.7179831860441630e-03 -5.9356385826760533e-03  2.6417868827820986e-02 -8.0548912333623327e-03 -5.9083793322816467e-03  2.7617624743197396e-02 -8.6757978397576548e-03 -6.4473261100006160e-03  2.5856876631201495e-02 -7.6183147120488228e-03 -6.1624841560536745e-03  3.1915281592424738e-02 -1.3383759063176503e-02 -6.0702364555126039e-03  3.2447821612194568e-02 -1.3251489707311020e-02 -6.4375033121175590e-03  3.2937965159731054e-02 -1.3170181985248986e-02 -6.7588758003402551e-03  3.3399427577260020e-02 -1.3111348880395625e-02 -7.0267008889278769e-03  3.3847436157549239e-02 -1.3054784780791112e-02 -7.2470509049184220e-03  3.4301252655622824e-02 -1.2986705493292835e-02 -7.4319862779372269e-03  3.4793352418199544e-02 -1.2888223303315472e-02 -7.6007561474725907e-03  1.7884271595569989e-02 -3.0148182947181759e-03 -5.6923365706221130e-03  1.6105685263611336e-02 -1.5087506646070698e-03 -6.0267674488710277e-03  1.6566144963909585e-02 -1.6200496397242514e-03 -6.1569100533233273e-03  1.6755786335124680e-02 -1.4433149521912317e-03 -5.9663478124679301e-03  2.8803939908507402e-02 -1.0274760589865912e-02 -4.4584401811168795e-03  2.8700435708109127e-02 -1.0013484884848002e-02 -4.8450306796619042e-03  2.8623873908644980e-02 -9.7942153076170605e-03 -5.1923873790362847e-03  2.8549203356174425e-02 -9.5933068209538268e-03 -5.5138901202386476e-03  2.8451565865824230e-02 -9.3993510614638238e-03 -5.8153315177182944e-03  2.8309107477313331e-02 -9.2066314852997898e-03 -6.1034671849678288e-03  2.8102837310984976e-02 -9.0247157294803884e-03 -6.3614920896467820e-03  2.2721381777664217e-02 -4.8868208716900544e-03 -3.0443699110062885e-03  2.2842545525071624e-02 -5.0935436916325237e-03 -3.5536807189333725e-03  2.2951425382574223e-02 -5.2839116167429506e-03 -4.0347261346447231e-03  2.3044916920737065e-02 -5.4787707472276495e-03 -4.4605608330842011e-03  2.3121365324350451e-02 -5.6854923819597732e-03 -4.8365691366916794e-03  2.3171019534780280e-02 -5.9092635155693820e-03 -5.1764215969284186e-03  2.3196630717267245e-02 -6.1462403963023667e-03 -5.5357184694490103e-03  2.0034595720897611e-02 -4.3885118729811434e-03 -2.3815837616497928e-03  1.8542805517530632e-02 -3.0241808700759072e-03 -2.8111152406415938e-03  1.9161926907057602e-02 -4.3176980749889560e-03 -1.9785145208837912e-03  1.9281052472069311e-02 -3.5573877271021888e-03 -2.9630787227034748e-03  1.8428957757921256e-02 -3.8994319443340203e-03 -1.6130146013879729e-03  1.9281308315333385e-02 -3.9698691983746006e-03 -2.1321949911189994e-03  1.7844223100925569e-02 -2.5885193586261440e-03 -2.5978156307435774e-03  1.7145749186911256e-02 -3.0571063979097251e-03 -1.2255377872849972e-03  1.5860079688157610e-02 -1.6810816768821309e-03 -1.7396548469292546e-03  1.6367219890839745e-02 -3.0194484741461851e-03 -4.0849987908532747e-04  1.6523031040447340e-02 -1.9273212543491267e-03 -2.0640423567517877e-03  1.5645819801105010e-02 -2.8330201587512169e-03 5.3587148996305989e-05  1.6374341294081211e-02 -2.8530872030745622e-03 -8.5563989573988932e-04  1.5177994791833273e-02 -1.4885455565740828e-03 -1.3725008817747086e-03  2.0321149380774603e-02 -3.8899673627668858e-03 -3.1465689905707910e-03  2.0846562000513606e-02 -4.8751078583657232e-03 -2.5820919786468358e-03  1.9531944561665057e-02 -3.3771044245473948e-03 -3.1053072254488613e-03  1.8820570980208430e-02 -2.9571639250891972e-03 -2.9997727183537328e-03  1.8146179899999587e-02 -2.6034922354204551e-03 -2.8501930852030378e-03  1.7178777417182614e-02 -2.2280518729832889e-03 -2.3489710369273002e-03  1.8572343626044652e-02 -3.6153254457396314e-03 -1.8602021361117810e-03  1.7480075362537210e-02 -2.3023436278290536e-03 -2.6590522118053969e-03  1.7870226279909422e-02 -3.3119448052694269e-03 -1.5599295089189058e-03  1.6799826862691561e-02 -2.0499929168086039e-03 -2.4254429949790456e-03  1.6092999933608812e-02 -1.8556704362869710e-03 -2.1417341839679574e-03  2.1037159922042116e-02 -3.2404850347714240e-03 -2.2276574761272124e-03  2.1220627218278554e-02 -3.7971547071632646e-03 -2.7349532532077825e-03  2.1476516265063254e-02 -4.3012746580338200e-03 -3.1439898348588854e-03  2.1740612272899286e-02 -4.7917447524976299e-03 -3.5198840986454759e-03  2.1985320476240640e-02 -5.2889704403698539e-03 -3.8683978584794988e-03  2.2180305343584370e-02 -5.8069771361797763e-03 -4.1734932578840140e-03  2.2300740619992120e-02 -6.3548338340607222e-03 -4.3615857274590568e-03  1.5509965763721134e-02 -1.9953665411094872e-03 -8.6277302564240752e-04  1.4846713415238192e-02 -1.8252997938585105e-03 -4.1215970224456469e-04  2.2092372349919613e-02 -4.0600512507900062e-03 1.5662941076893748e-03  2.3193856632432411e-02 -5.5619452363642871e-03 3.2803598224878606e-04  2.2656196775675503e-02 -4.7996737970094150e-03 2.7704141289494594e-04  2.3510536953168681e-02 -5.3780485809696568e-03 2.3056674490845461e-04  2.4192026655157697e-02 -6.0737955377446855e-03 3.6909064586681601e-04  2.2983785767310319e-02 -4.6560403948587605e-03 1.6697425444334056e-03  2.4257571234184414e-02 -5.9641235634223348e-03 1.6546388037126821e-04  2.5055516988357760e-02 -6.6119575543703100e-03 3.7722288467763380e-04  2.3778726908698877e-02 -5.2687590550597289e-03 1.7243928931832703e-03  2.4982458151642118e-02 -6.5378719671894021e-03 7.9555169325624939e-05  2.5895586345005567e-02 -7.1437648149682729e-03 3.5982966911418646e-04  2.4563308849376332e-02 -5.8823994029323368e-03 1.7409050514306768e-03  2.5697662637859147e-02 -7.1328008049454964e-03 -1.7424712466430475e-05  2.6733443147438085e-02 -7.6981776881232455e-03 3.2716525485486727e-04  2.3663328377364960e-02 -5.7383965117359312e-03 -3.5213889491862382e-03  2.3512833991490560e-02 -5.6895810192385257e-03 -2.9738676994299890e-03  2.4659150772702233e-02 -6.7860907273132763e-03 -3.2962441415212347e-03  2.4952362405556549e-02 -6.9607957294726824e-03 -3.8143906192044637e-03  2.3774481668009228e-02 -5.9300655581571203e-03 -3.4650888905422448e-03  2.3696198482690903e-02 -5.7927027293893140e-03 -4.0607344984745011e-03  2.5192991282534868e-02 -7.0854371703437868e-03 -4.2536374096620476e-03  2.3999869693386425e-02 -6.1292359875770620e-03 -3.9071461703389229e-03  2.3671590098215477e-02 -5.8246800810266416e-03 -4.5139018487634006e-03  2.5386902297592769e-02 -7.2131307242935417e-03 -4.6414515007164175e-03  2.4182660982731603e-02 -6.3328296440834713e-03 -4.3041860795483694e-03  2.3628229364734972e-02 -5.8653783287290692e-03 -4.9120794551226095e-03  2.5557130444872025e-02 -7.3490470747275870e-03 -4.9953715915800403e-03  2.4339858626378420e-02 -6.5477849198786950e-03 -4.6640998526463941e-03  2.3575140273769661e-02 -5.9197884927107858e-03 -5.2692747417736815e-03  2.5723521451555459e-02 -7.4977005859361637e-03 -5.3267049312156105e-03  2.4477678690998792e-02 -6.7812706498481161e-03 -5.0084161292432809e-03  2.3524864768335940e-02 -5.9870259281976593e-03 -5.5961883828452618e-03  2.5913254058957017e-02 -7.6583204682434992e-03 -5.6436759285438363e-03  2.4624733687877976e-02 -7.0405046148601805e-03 -5.3555512818514008e-03  2.3523570881762160e-02 -6.0684868994772476e-03 -5.9049282397624202e-03  2.1513796384306241e-02 -4.6617172112498901e-03 -3.1135746850491398e-03  2.0684670753851025e-02 -4.1856675573619818e-03 -3.0786647768360543e-03  1.9961769375217091e-02 -3.7866991782781229e-03 -3.0046539124856408e-03  1.9280316058181781e-02 -3.4459318412577897e-03 -2.8884864388421406e-03  1.8603201077825770e-02 -3.1496035115111463e-03 -2.7311893834504855e-03  1.7902561663950368e-02 -2.8946307243837913e-03 -2.5302182707557324e-03  1.7151329883383401e-02 -2.6834202154606235e-03 -2.2809689047976612e-03  2.4890975539123245e-02 -6.8268206269249754e-03 -3.7915415574922067e-03  2.4926462800590941e-02 -6.8308722164697432e-03 -4.3408610941322017e-03  2.4918991863645937e-02 -6.8191718482656727e-03 -4.7760539820305226e-03  2.4894197464322317e-02 -6.8132653702437720e-03 -5.1645540295983967e-03  2.4852698828619398e-02 -6.8147407134512700e-03 -5.5206708692442921e-03  2.4797530173407589e-02 -6.8244693281138457e-03 -5.8498523855077950e-03  2.4729270813393489e-02 -6.8551333015319489e-03 -6.1007374898980485e-03  2.8908420749009886e-02 -1.0371270204381392e-02 -3.9609938258104663e-03  2.8561317506922170e-02 -1.0013262253669828e-02 -4.1857993514236268e-03  2.8271394654519992e-02 -9.6880415086704353e-03 -4.4272514474230362e-03  2.7990408991399401e-02 -9.3816233206865714e-03 -4.6625855711552493e-03  2.7689137263387294e-02 -9.0805911933192797e-03 -4.8864607466162389e-03  2.7338974647697876e-02 -8.7728617263179015e-03 -5.0982469708324091e-03  2.6912011829040596e-02 -8.4501116027855417e-03 -5.3022597252001978e-03  1.8099133680735627e-02 -1.5190435123541208e-03 -4.1071872951343145e-03  1.9193335234919864e-02 -2.1900008534349470e-03 -4.0056001280618066e-03  1.8364490686195927e-02 -1.9860876484902703e-03 -3.8662426619531318e-03  1.7750294796307273e-02 -1.5178226395091200e-03 -4.0493417892965627e-03  1.8640934073797199e-02 -1.8534821761908001e-03 -4.3707596584893179e-03  1.6608276068694281e-02 -6.1073905455397365e-04 -4.8039648563171005e-03  1.7663631279007937e-02 -1.3569638553905909e-03 -4.8054047640240724e-03  1.6637607860411414e-02 -8.3530651186058686e-04 -4.1577476133110624e-03  1.6104861041025285e-02 -5.8179304245663797e-04 -4.1154699872408447e-03  1.7200051468612358e-02 -1.1788541888283256e-03 -4.9140773216014445e-03  1.6150612295364807e-02 -4.2050505842020406e-04 -4.8789949887646216e-03  1.5575639805171897e-02 -3.7425605960320811e-04 -4.0188751860652048e-03  1.6731459263508931e-02 -1.0388281964643781e-03 -4.9624033105077538e-03  1.5693737776792741e-02 -2.7004300820124028e-04 -4.8949593584917120e-03  1.5047758257382918e-02 -2.0909359992714367e-04 -3.8662911764776693e-03  1.6252915756897468e-02 -9.3669556797419695e-04 -4.9545166782123881e-03  1.5234948043562728e-02 -1.5786706006524660e-04 -4.8469479742306015e-03  2.2188639496887725e-02 -5.6816944455570974e-03 -2.6097787590407735e-03  2.1329357063023455e-02 -5.2061397458604101e-03 -2.4410130596226151e-03  2.0559870593526628e-02 -4.7910107818233587e-03 -2.2598039853638572e-03  1.9839820573772066e-02 -4.4264322815461294e-03 -2.0595501954787216e-03  1.9124708592496625e-02 -4.1026397778984470e-03 -1.8323105523795817e-03  1.8379681103508311e-02 -3.8179354622174299e-03 -1.5691791795789808e-03  1.7575318144937908e-02 -3.5688135057854657e-03 -1.2629070739488468e-03  3.1167427822081577e-02 -1.2465674830567796e-02 -5.6045602978027319e-03  3.1460962932428033e-02 -1.2270795722964169e-02 -5.9923761152231381e-03  3.1731216643156195e-02 -1.2120664341958930e-02 -6.3434725838349484e-03  3.1984021597764055e-02 -1.1993141472499280e-02 -6.6577828188687984e-03  3.2221942986736446e-02 -1.1873055789714581e-02 -6.9402978996733625e-03  3.2446055762538527e-02 -1.1746827628480382e-02 -7.2017969040002235e-03  3.2654770803102126e-02 -1.1598580620518641e-02 -7.4463015716908602e-03  2.2528778287099115e-02 -5.3406643030980859e-03 -3.1194260075007086e-03  2.1710356910627969e-02 -4.8874166722630962e-03 -3.1365242973227887e-03  2.0996242521238464e-02 -4.5042851437808043e-03 -3.1162541593903917e-03  2.0321398406658760e-02 -4.1660669475166515e-03 -3.0603387776051935e-03  1.9644777576245356e-02 -3.8635275778917894e-03 -2.9664671587722969e-03  1.8934127796070510e-02 -3.5955093561066674e-03 -2.8315345685927789e-03  1.8166051833265688e-02 -3.3778950438398264e-03 -2.6400259389662913e-03  2.9691133513692979e-02 -1.1269060537026953e-02 -5.0228523316120767e-03  3.0011428772657972e-02 -1.1366882356537954e-02 -4.9482935577869055e-03  3.0063962643549696e-02 -1.1119333310344870e-02 -5.3234832415825755e-03  2.9979884750389811e-02 -1.1167719129638848e-02 -5.4633339024165008e-03  3.0281156909147219e-02 -1.1093839376872094e-02 -5.8461120540542746e-03  3.0129721464057319e-02 -1.0915011919749525e-02 -5.6766958062572526e-03  3.0572180354832255e-02 -1.1035618456270888e-02 -6.1853889558187618e-03  3.0187591793240150e-02 -1.0733178743155186e-02 -6.0006949315876447e-03  3.0845586807991158e-02 -1.0981822793226331e-02 -6.4917483754911879e-03  3.0225766299504624e-02 -1.0559042469925469e-02 -6.2999062942651314e-03  3.1094561897271767e-02 -1.0924190429018023e-02 -6.7748456197149727e-03  3.0237057331289466e-02 -1.0379247212534522e-02 -6.5817041378745432e-03  3.1294685214845519e-02 -1.0853959399921412e-02 -7.0682172325540046e-03  3.0210925959460545e-02 -1.0174261035603939e-02 -6.8726346849689408e-03  2.0395785431542190e-02 -2.9880949333761214e-03 -3.9398392757624724e-03  1.9681897987298792e-02 -2.7592663933023618e-03 -3.8022421174607412e-03  1.9041994943009274e-02 -2.3403146520911563e-03 -4.0466112191868495e-03  1.9856204743049426e-02 -2.7068957449391971e-03 -4.3388226350810260e-03  1.8137533753605280e-02 -1.5785005553267449e-03 -4.6294400271019000e-03  1.9371258873737359e-02 -2.4719593724523026e-03 -4.6380884642922863e-03  1.8456322313330772e-02 -1.9967404499420696e-03 -4.1900577002711454e-03  1.8915235241770356e-02 -2.2792545865229757e-03 -4.8575359175096582e-03  1.7901196018814083e-02 -1.7118630334174133e-03 -4.2628882147747148e-03  1.8467641826413604e-02 -2.1233295488694765e-03 -5.0108203557127640e-03  1.7355639618251654e-02 -1.4749802616978911e-03 -4.2764533022946983e-03  1.8011292285680911e-02 -1.9988628171891446e-03 -5.1051046995902842e-03  1.6803838932852384e-02 -1.2805414267019132e-03 -4.2367711502909172e-03  1.7527913904403915e-02 -1.8965226577401983e-03 -5.1476924970186551e-03  1.6229588233578909e-02 -1.1292066968869590e-03 -4.1406902676826632e-03  2.1181627428395366e-02 -2.7630880675733466e-03 2.4566282412331396e-03  2.1748403581569108e-02 -3.6713597801377807e-03 8.5339250545725560e-04  2.1037918729765369e-02 -2.7458360763638135e-03 1.0601777221668570e-03  2.2518868524745606e-02 -4.3286852834321351e-03 8.3909799063873502e-04  1.8228182514672033e-02 -1.1638551830647978e-03 -3.2774455238802312e-03  1.8803395886957425e-02 -1.4795436406353556e-03 -2.4578878580879000e-03  1.9679343882183870e-02 -2.1422624131993478e-03 -3.2758319741773602e-03  1.9566678227190239e-02 -2.4400081294403153e-03 -3.9245461657256364e-03  1.8919885446616113e-02 -1.9921782185818612e-03 -3.0169396450667953e-03  1.8189011481342832e-02 -1.4904380683534470e-03 -3.9086955565878437e-03  1.9508881320697009e-02 -2.7189091983597789e-03 -4.4288551943306477e-03  1.8873763019266705e-02 -1.5797218318938143e-03 -3.7075096393598076e-03  1.8641664250258368e-02 -1.7111191979632392e-03 -4.3397048446483988e-03  1.8464314093254251e-02 -1.8541110655059480e-03 -4.8415905764677735e-03  1.8110804778384594e-02 -1.7907903532393093e-03 -4.3932198800465932e-03  1.8303558148096085e-02 -2.0015672533909091e-03 -5.2497098637640689e-03  1.9462907041723661e-02 -2.9885671856963759e-03 -4.8559124691445387e-03  1.8029920683127726e-02 -2.0814393579230948e-03 -4.8026095654067581e-03  1.8144175772205343e-02 -2.1589451798591326e-03 -5.5891479180962874e-03  1.9411416697422221e-02 -3.2633197686635831e-03 -5.2245188773678347e-03  1.7957810760731944e-02 -2.3743747372401733e-03 -5.1572883037755250e-03  1.7973832770583259e-02 -2.3356095790227223e-03 -5.8663407992431129e-03  1.9340408916680759e-02 -3.5584627520704897e-03 -5.5340690127622131e-03  2.9771730263405127e-02 -1.1054606787977516e-02 -4.4343805875577914e-03  2.9584239282208880e-02 -1.0725186141602129e-02 -4.7179207729894368e-03  2.9440009128155902e-02 -1.0438640188366615e-02 -5.0071736403118948e-03  2.9296692598476573e-02 -1.0172871347187950e-02 -5.2853698042243640e-03  2.9135534423983277e-02 -9.9148937903624779e-03 -5.5493991279951995e-03  2.8936802869526608e-02 -9.6512309826080576e-03 -5.8067502901207385e-03  2.8656997360270928e-02 -9.3652208345990778e-03 -6.0583664004832637e-03  2.6074134097928293e-02 -7.9380701548152788e-03 -3.9213656444626365e-03  2.5820022689996631e-02 -7.889181072987