<?xml version="1.0"?>
<VTKFile type="UnstructuredGrid"  version="0.1"  >
<UnstructuredGrid>
<Piece  NumberOfPoints="1000" NumberOfCells="4213">
<Points>
<DataArray  type="Float64"  NumberOfComponents="3"  format="ascii">1.790473408364985 4.016172545180251 1.536912093950385  1.903074918425123 4.038412914746047 1.669123903517955  1.914756744511855 3.995249942819004 1.509930377067344  1.922176617250014 4.068373234816239 1.487803500470629  1.909270854960658 4.11117360639391 1.653196645272388  1.796190853977514 4.089281918804936 1.516904904640935  1.801736221250897 4.162307321318176 1.496944332572499  1.91530294736388 4.183807808932712 1.637335320689515  1.929392048626509 4.141417671941715 1.465740805291567  1.936510946699707 4.214364635069387 1.443702406798688  1.921254418600705 4.256354958243357 1.621484265433211  1.807186721166672 4.235179113021578 1.477014843818907  1.943606580482338 4.287209852579352 1.421656198827101  1.927184077043987 4.328768979774442 1.605626269771988  1.81262351285447 4.307935984162016 1.457079372407438  1.950755601877356 4.359959854462751 1.399574131932408  1.933143252651837 4.401083585330181 1.589724803392464  1.818119133858744 4.380542315396425 1.437118667643772  1.958041217486873 4.43262830422282 1.377436498637106  1.939227149282546 4.473255465815862 1.573779769944089  1.823765573667297 4.453031034162179 1.41710472893359  2.028801269011404 3.968752424816497 1.468248741696953  2.033655422156091 4.014139313947031 1.615121326371466  2.151645821237697 3.989185801141555 1.564612938214981  2.158769911349415 4.062971225597811 1.543480783921342  2.040332408396287 4.087440891829811 1.596419643937921  2.03643263002583 4.042024859707964 1.443525799980549  2.165754346610068 4.136729466712679 1.522400333188365  2.046858000292705 4.160682560928285 1.577783350710528  2.043889668648519 4.115257895193372 1.418853532150432  2.172658922660547 4.21044486562228 1.501336474009267  2.053296345955887 4.233839901932283 1.559169416409528  2.051255298935414 4.188429502072318 1.394199683133948  2.179534315060716 4.284109289661574 1.480258700169515  2.059711175924428 4.306914285540704 1.540538887368661  2.058593923686737 4.261530603683885 1.369535606644111  2.1864289788456 4.357728173970825 1.459140284222463  2.066157435049382 4.379906778365292 1.521863828609614  2.065968218667088 4.334559547346839 1.344836049536054  2.193401919416072 4.431317509058744 1.437960489546042  2.072694395307199 4.452838163122023 1.503133663394622  2.073454204920515 4.407520743103348 1.320078748477501  1.774896768849943 3.821266947876219 1.099132480211494  1.866714694751507 3.761422434396414 1.027374035301392  1.772688554703636 3.724146192109664 0.9754291018705841  1.780098138473904 3.783123441039283 0.917239176366353  1.873274071958096 3.825195580326686 0.974811308886914  1.78143285545783 3.887872010880142 1.052142678636546  1.787752583119127 3.954426949972238 1.005230656053586  1.879643385370146 3.888963256041079 0.9223103487167504  1.787269642885295 3.842079487202289 0.8591444934551473  1.7939471426907 4.020897192964259 0.9583744509378379  1.885913451028807 3.952681172722337 0.8698443730638363  1.794327423819119 3.90097412727446 0.8011098942980773  1.892165427393022 4.016332370796992 0.8173936590400024  1.800114656762207 4.087263619484371 0.9115534106063868  1.801365282583349 3.959786323681531 0.7431181960295991  1.806347214044435 4.153515445460504 0.864734822788192  1.898480792138349 4.079900766644581 0.7649480570845276  1.808471133755371 4.018498028854735 0.6851491577491892  1.812748509350451 4.219656393730229 0.8179085238986555  1.904910100129781 4.143405573762313 0.7124595813413896  1.815756105069644 4.077108435629564 0.6271728225555716  2.156003467843872 4.024195088835892 1.709778278901941  2.272035887914794 4.000913156606151 1.663724800412715  2.163330723581689 4.097762125893322 1.695385089259567  2.279737738146166 4.07525372963166 1.647825388261515  2.287315344563661 4.149583988162409 1.631977199321231  2.170515095918109 4.171274624236339 1.681062013243044  2.294816697914024 4.223876015947027 1.616146997615975  2.177620537101686 4.244731000331335 1.666758108245929  2.302285841541003 4.298124469841355 1.600305260459891  2.184697908893618 4.318122613690353 1.652440844541133  2.309760770825546 4.372334199873141 1.584426149333631  2.191799379401616 4.39145296962655 1.638082402875186  2.317283206911457 4.446521033020494 1.568482632695256  2.1989754457113 4.464721155923155 1.623650474043642  2.283021603990135 3.96096962292933 1.513887819470633  2.290302763375482 4.035269360474468 1.489849900776532  2.297482426833231 4.109576160337097 1.465846752726537  2.304595630964064 4.183865634928198 1.441855162550786  2.311678423194969 4.258127686284997 1.417847594311979  2.318763340897528 4.332366364685004 1.393799225435426  2.325886357374689 4.406598595105878 1.369686141480405  1.802244960847932 4.07134863666772 1.805223719065028  1.778758967606242 4.045012962721056 1.657603132642092  1.783604219392351 4.117644737634052 1.641883609337818  1.806002547213472 4.143331080270713 1.795216358685253  1.788284365732945 4.190090375217077 1.626231040936225  1.809662032378418 4.215164010163208 1.785250769642805  1.813272435449342 4.286833497549215 1.77529817965017  1.792886179097487 4.262374852528442 1.610599660210536  1.816876064532781 4.35836394291655 1.765333430009568  1.797474855947157 4.334517255069067 1.594959029367774  1.820509785793698 4.429754528251181 1.755334778052254  1.802117030844129 4.406527410230494 1.579285524639288  1.80688452000766 4.478413214472174 1.56357446073909  1.824231936312007 4.501016228829728 1.745299507518681  2.252356422831917 3.913478666714331 1.380534308706716  2.350897523395926 3.873655785838127 1.319058015813086  2.229092631543801 3.853598394708857 1.247373522131416  2.260223483902212 3.986528879344903 1.349116351692783  2.35845412030393 3.946076559094656 1.283122107069342  2.239451168178723 3.924839718580754 1.209132389888779  2.267977116480697 4.0596076084109 1.317724255661535  2.365940739387356 4.018535855599923 1.247190493252704  2.249660515274212 3.996123797341727 1.170890645084026  2.275665432179935 4.132678682504158 1.286331373463249  2.259801590687251 4.067407654005941 1.132640159237631  1.666743351624876 3.76838351041185 1.008434319868907  1.672232594728891 3.831281859079667 0.9546428853470859  1.67746672802005 3.894123958177911 0.900962853627758  1.682565222934928 3.956873512822855 0.847378201884727  1.687630527980823 4.019510296930626 0.7938648669680672  1.692781659843327 4.08203295334854 0.7404038168103015  1.698179322959757 4.144440602330318 0.6869126605364841  2.132973464446474 3.893431587720704 1.304804423272429  2.141625322861461 3.966089077747309 1.271671799042131  2.150118919654431 4.038763281723124 1.238565940521748  2.158530557017636 4.111423631408734 1.205467339779134  2.166923308432353 4.184052421346887 1.172352165897168  2.283329153406193 4.20572770785876 1.254918181376536  2.26992529118318 4.13867505470372 1.094367957275944  2.175355569374709 4.256645780895882 1.139197577392856  2.291005497030588 4.278756488567189 1.223464551471427  2.280077851645518 4.209924505369478 1.056059404431007  2.183891701798069 4.32920169556258 1.105993272305968  2.298735122002646 4.351781566235706 1.191951905240056  2.290346591417699 4.281168052798598 1.017697599964292  1.668033023509665 4.061099381431842 1.696828953260486  1.670301973191661 4.133911335999902 1.684492087214019  1.672461064915194 4.206538990142819 1.672192045444072  1.674565454852061 4.278995192815442 1.659901034593943  1.676665218584076 4.35128556547838 1.647603101649784  1.678819510530477 4.423411654548557 1.635284036825163  1.681088824157996 4.495383160158458 1.622937154301952  2.142008940628224 3.944432459165701 1.427459272103419  2.149316338091817 4.017823819273462 1.3997964779558  2.156487965268451 4.09121103878862 1.372177716207778  2.163580385811548 4.164569929821667 1.34456736060529  2.170647597823819 4.237887767463628 1.316941812432959  2.177741793759245 4.311167772924175 1.289277618616549  2.184912617401948 4.384427411065796 1.261554280137389  1.422395144214804 3.680258968272929 0.9070524757517454  1.446844178210786 3.761152283085572 0.9893751493183098  1.558033775244814 3.721383558317333 0.9578997782435513  1.449799865804093 3.822247707055889 0.9322018186553137  1.424433495969989 3.737131520407196 0.8445260720853567  1.561338887984283 3.78038481052084 0.8990019177668975  1.452474868427033 3.88322394197175 0.8752186729216859  1.426226131541385 3.793915336216196 0.7821550150097686  1.564392597706515 3.839288894145079 0.8402629297803771  1.454979285149673 3.944042486519098 0.8183897794077077  1.427847476988467 3.850546446138207 0.7199552406616893  1.567297339142472 3.898083998893522 0.7816455418054159  1.457436101119632 4.004706432968368 0.7617106257795282  1.429462342779694 3.907071637602129 0.6579253968996179  1.57014982967687 3.956751950874259 0.7231342660990886  1.460050306468385 4.065228549584452 0.7051467002336135  1.43122354338561 3.963466722781981 0.5960231046808284  1.573109499448191 4.015308209569227 0.6647385915107729  1.46303169843518 4.125563994534433 0.6486013250263812  1.433349847814561 4.019663278924696 0.5341548732482251  1.576354272493038 4.073705257530133 0.6063469866303924  2.043003929215388 4.03877681020246 1.741542407249969  2.049906884806074 4.111672410528624 1.728377649996047  2.056658156548631 4.184469492345428 1.715279687489722  2.063320446788857 4.257162451992569 1.702206414344411  2.069957551005386 4.329761515089536 1.689121464552708  2.076620715487179 4.402264253702083 1.675992039406762  2.083366854090694 4.474682825193033 1.662789609901962  1.898329319088413 3.837210460193148 1.140967296835604  2.010410689665434 3.793898618763892 1.099137326374415  1.906790174257452 3.906111922636645 1.098010619107926  2.019004666634286 3.861575258641478 1.052572547799135  2.027419526877243 3.929260984049553 1.006046123340591  1.915028162011582 3.97498658565683 1.055116608916069  2.035743734977712 3.996922993999902 0.9595346233988
[...]
<PointData  Vectors="f_16"> 
<DataArray  type="Float64"  Name="f_16"  NumberOfComponents="3" format="ascii">9.2209570373974939e-02 -1.8601186991574795e-03 -3.4570305824118720e-04  9.1451032311802793e-02 -2.3218846169631990e-03 4.5066394670076322e-05  9.1191596182113324e-02 -2.4298246139655105e-03 -5.0221265622122496e-04  9.1613132039020592e-02 -2.1938485781154466e-03 -5.2483025333647799e-04  9.1866890409299226e-02 -2.0797155084178146e-03 3.5488864375291384e-05  9.2562243238757017e-02 -1.6113349880524949e-03 -3.7063492172642837e-04  9.2907218911343167e-02 -1.3983438640615535e-03 -3.7406958847717149e-04  9.2269897550465926e-02 -1.8744101843999395e-03 5.1943822438226525e-05  9.2013828827442343e-02 -1.9842810517303926e-03 -5.2586830462826508e-04  9.2402710839803545e-02 -1.8030626438290988e-03 -5.1128404641127573e-04  9.2664170053518860e-02 -1.7025668336091624e-03 8.3014194467979834e-05  9.3246498124717997e-02 -1.2143758406083103e-03 -3.6388420162661224e-04  9.2785429298623989e-02 -1.6490313351852613e-03 -4.8725255203515503e-04  9.3051942411013833e-02 -1.5632897575986249e-03 1.2070725565268168e-04  9.3582012107899876e-02 -1.0581199080950229e-03 -3.4566825692465542e-04  9.3165292240068892e-02 -1.5216406454308347e-03 -4.5910671851988452e-04  9.3432684867857926e-02 -1.4543871486665944e-03 1.5952313709826344e-04  9.3911255965853258e-02 -9.2772104029253326e-04 -3.2341368849323762e-04  9.3548086720234527e-02 -1.4213290216249718e-03 -4.3182261670549575e-04  9.3809540612693199e-02 -1.3768356187913650e-03 1.9532566568713572e-04  9.4235327861883364e-02 -8.2847864784540862e-04 -3.0017248643007853e-04  9.0242677871869501e-02 -3.0553814832688366e-03 -7.2956761119734683e-04  9.0356123842465413e-02 -3.0328562342906273e-03 -2.1547035989701865e-04  8.9369745598254016e-02 -3.7698871414860017e-03 -4.9108084626585825e-04  8.9907126299764342e-02 -3.5338879896952271e-03 -4.7752918240770057e-04  9.0843217027100701e-02 -2.7972887631653753e-03 -2.1519233152227034e-04  9.0713346263062725e-02 -2.8220175523514988e-03 -7.4629251619791716e-04  9.0426765390563588e-02 -3.3252643632309497e-03 -4.4058609589817517e-04  9.1314742926713446e-02 -2.5917438469443598e-03 -1.9022586039335493e-04  9.1162893134395212e-02 -2.6078667921690659e-03 -7.4282094215828535e-04  9.0932278140388165e-02 -3.1415778905890201e-03 -3.8749108893774021e-04  9.1773756729081654e-02 -2.4152783681236070e-03 -1.4961957516026136e-04  9.1597912644183072e-02 -2.4195196526062526e-03 -7.2342510276447757e-04  9.1426794598191710e-02 -2.9835073157045882e-03 -3.2563670710905834e-04  9.2222819823455107e-02 -2.2685862643443064e-03 -1.0091053422210112e-04  9.2024182106459101e-02 -2.2571230886438277e-03 -6.9356417469106850e-04  9.1913786796514532e-02 -2.8500276907051500e-03 -2.6100053768215932e-04  9.2665880658540242e-02 -2.1502725266784478e-03 -5.0428810694704874e-05  9.2446570495142336e-02 -2.1193748200542353e-03 -6.5783369403583686e-04  9.2396914194030205e-02 -2.7414577179687982e-03 -1.9890719748957297e-04  9.3105179605069269e-02 -2.0590418904860995e-03 -4.6869955657216391e-06  9.2871345644962244e-02 -1.9987663452640165e-03 -6.2143668657098936e-04  9.1828912627086368e-02 -2.1264226414857970e-03 -1.7748299321496516e-03  9.1037839428056877e-02 -2.6308656226332293e-03 -2.0877070837213253e-03  9.1663691923044993e-02 -2.3323814721629955e-03 -2.1588499086998576e-03  9.1932607071317854e-02 -2.1076566599435146e-03 -2.3629105645177886e-03  9.1361625856518677e-02 -2.3830668605338791e-03 -2.2528037018298953e-03  9.2137760572155475e-02 -1.8674470199175998e-03 -1.9091852796371983e-03  9.2434894050983721e-02 -1.6409676702955351e-03 -2.0200197232456193e-03  9.1672802995994798e-02 -2.1628894946934597e-03 -2.3880269733411830e-03  9.2181310065213296e-02 -1.9033695950678052e-03 -2.5320005358164897e-03  9.2722532050628276e-02 -1.4389716274625086e-03 -2.1089041860568314e-03  9.1971564585644983e-02 -1.9618652951952616e-03 -2.4997327230183164e-03  9.2420897096735483e-02 -1.7172835234009762e-03 -2.6735696178337024e-03  9.2263611824248498e-02 -1.7768280587475221e-03 -2.5914960622427769e-03  9.3004715734614343e-02 -1.2573119319902184e-03 -2.1784753114383318e-03  9.2655072779104133e-02 -1.5463640187417412e-03 -2.7930235245772978e-03  9.3284163773331971e-02 -1.0925831777426666e-03 -2.2300271788286558e-03  9.2552540597486008e-02 -1.6064702877158592e-03 -2.6650446098215471e-03  9.2886850863194495e-02 -1.3901437157205821e-03 -2.8939808413339704e-03  9.3565791880687949e-02 -9.4032843063485388e-04 -2.2664477343467943e-03  9.2828286855806338e-02 -1.4488266499540160e-03 -2.7187918246202262e-03  9.3127843896906259e-02 -1.2478494599144506e-03 -2.9850264996640996e-03  8.9398622673016348e-02 -3.8055776899130244e-03 2.8194399620453887e-05  8.8405714445802600e-02 -4.6381258346448028e-03 -2.6339120642941862e-04  8.9975881742886177e-02 -3.5763808145346972e-03 6.0960934268232587e-05  8.9029658239497725e-02 -4.4130148077245347e-03 -2.0228457856587384e-04  8.9633875353603953e-02 -4.2131258798941062e-03 -1.2071757052915234e-04  9.0531048278701828e-02 -3.3841371909217243e-03 1.2014938779313103e-04  9.0221601397419873e-02 -4.0422332774040530e-03 -2.5224040765378653e-05  9.1069727891957414e-02 -3.2227195828002358e-03 1.9393166171586374e-04  9.0796879625874585e-02 -3.9004091014981281e-03 7.7799173551166119e-05  9.1596918771663011e-02 -3.0917074410125268e-03 2.7377593160830100e-04  9.1362778754396051e-02 -3.7859166940976863e-03 1.8203480807590759e-04  9.2117488486233606e-02 -2.9902996589974951e-03 3.5276642347072909e-04  9.1923631546692544e-02 -3.6938612584509227e-03 2.8186339485159042e-04  9.2636010309629549e-02 -2.9214643815601575e-03 4.2625969213725984e-04  8.8294648364348222e-02 -4.6603538745378240e-03 -8.1449509242117167e-04  8.8870608010174823e-02 -4.4217609529651428e-03 -7.8490986329391062e-04  8.9431781560732684e-02 -4.2000065775688938e-03 -7.3140177383319805e-04  8.9980374752201608e-02 -4.0008198657045949e-03 -6.6229480605259545e-04  9.0516995250472271e-02 -3.8255721009530621e-03 -5.8321166748062734e-04  9.1043070240714688e-02 -3.6726478466112388e-03 -5.0013908123369753e-04  9.1561231802997509e-02 -3.5379144420291803e-03 -4.1946613938906064e-04  9.2408064983192789e-02 -1.8397086636491638e-03 5.3319408850338243e-04  9.2423774207196455e-02 -1.7857974878301962e-03 5.3746787278191549e-05  9.2759875440482115e-02 -1.5352604459776794e-03 3.6779273583470129e-05  9.2743579331132281e-02 -1.5823881865924304e-03 5.2936104324867212e-04  9.3095029412450750e-02 -1.3244475182350036e-03 4.2064159046107761e-05  9.3087996114758667e-02 -1.3755931153477357e-03 5.4853974109653517e-04  9.3433106177866668e-02 -1.2082138538002151e-03 5.7883151563453087e-04  9.3427952828572927e-02 -1.1470731354444479e-03 6.0391170527761920e-05  9.3773046569424937e-02 -1.0743512939511905e-03 6.1348913812659214e-04  9.3757198340397946e-02 -9.9923450501582180e-04 8.5266517870833029e-05  9.4101333122733485e-02 -9.7322707876322740e-04 6.4665642079366501e-04  9.4079322969366760e-02 -8.8007672963967597e-04 1.1126181638972251e-04  9.4392629087891755e-02 -7.9068465710628133e-04 1.3417879059121163e-04  9.4415446820380666e-02 -9.0666482369381775e-04 6.7600688707337628e-04  8.8422458934226844e-02 -4.4577027868635179e-03 -1.2677088747426082e-03  8.7591832954732593e-02 -5.1465627516416651e-03 -1.6259111608407082e-03  8.8434794937324424e-02 -4.3633782754035517e-03 -1.7216470323394482e-03  8.8951542177052173e-02 -4.2160217112196330e-03 -1.2726681579475481e-03  8.8125252150534725e-02 -4.8913307986013926e-03 -1.6357469180378454e-03  8.8934716173510689e-02 -4.1326026319824663e-03 -1.7633720471634221e-03  8.9463103957863874e-02 -3.9869094668440637e-03 -1.2594085483297658e-03  8.8646872221989678e-02 -4.6435346663983327e-03 -1.6271221569722650e-03  8.9395867223852926e-02 -3.9112769901230989e-03 -1.7921804210952565e-03  8.9960587502553993e-02 -3.7756860748923054e-03 -1.2303215599665032e-03  8.9838066005084941e-02 -3.7044459638406273e-03 -1.8050522854080803e-03  9.2551693674135821e-02 -1.8389193588343098e-03 -1.9528561692850599e-03  9.2794096499151213e-02 -1.5823549128825148e-03 -2.1370539647281848e-03  9.3028488242509158e-02 -1.3648397069513133e-03 -2.2816204991270286e-03  9.3259717692285304e-02 -1.1673186502336116e-03 -2.4005252661437851e-03  9.3488194374948805e-02 -9.8605848400286746e-04 -2.4989568356183866e-03  9.3714301132296340e-02 -8.1993329846118612e-04 -2.5800404526210171e-03  9.3939253376512363e-02 -6.7154902565447216e-04 -2.6453823417151210e-03  8.9258632906225585e-02 -3.7288004249623483e-03 -1.3983267971969626e-03  8.9747909611618742e-02 -3.4910159728873949e-03 -1.4358385192384561e-03  9.0209013274502953e-02 -3.2700611077879343e-03 -1.4542662880015237e-03  9.0652672674748067e-02 -3.0669251443484293e-03 -1.4566494866812207e-03  9.1087879506321592e-02 -2.8827771039558600e-03 -1.4466396885163841e-03  9.0447214207402246e-02 -3.5842721271227853e-03 -1.1895437014671582e-03  9.0272029606388735e-02 -3.5136414388625271e-03 -1.8039103178103628e-03  9.1522812811276208e-02 -2.7174329779317452e-03 -1.4281368001328283e-03  9.0926512176060320e-02 -3.4112863046539890e-03 -1.1419618107576023e-03  9.0707795212696243e-02 -3.3377613166502029e-03 -1.7917308680021446e-03  9.1964381981081936e-02 -2.5704036120243311e-03 -1.4059911006818961e-03  9.1402463338696005e-02 -3.2519713507678013e-03 -1.0941909579849137e-03  9.1165305456933660e-02 -3.1681942695300828e-03 -1.7712266710912894e-03  9.3322295624185633e-02 -1.3962634706761730e-03 2.0217874509997563e-04  9.3583473869682118e-02 -1.1429211711548634e-03 1.9379308138398198e-04  9.3863992546248207e-02 -9.3025490960648414e-04 2.0124921657911063e-04  9.4151824378380503e-02 -7.4819055888272778e-04 2.1786687054801997e-04  9.4436346722466244e-02 -5.9304056888622955e-04 2.3939381001316002e-04  9.4707583364395387e-02 -4.6330475551818474e-04 2.6234480680424773e-04  9.4956560559942171e-02 -3.6167228590379348e-04 2.8358524735324226e-04  8.9335116595051320e-02 -3.7315742769201102e-03 -9.7334700586869719e-04  8.9840431834637594e-02 -3.4931023967271057e-03 -9.8375655901215158e-04  9.0330269821410555e-02 -3.2727747832243768e-03 -9.7328661962020114e-04  9.0805307490623724e-02 -3.0733491552783414e-03 -9.4753193299648882e-04  9.1269915577868704e-02 -2.8960991955611646e-03 -9.1128006955712220e-04  9.1728663110414263e-02 -2.7400282265630568e-03 -8.6944819580822476e-04  9.2184897047798489e-02 -2.6041157374645137e-03 -8.2579364683091870e-04  9.4182464153923340e-02 -1.3308064187333053e-03 -1.9812338487543001e-03  9.4127849023071947e-02 -1.2193737537557067e-03 -1.7720838764406952e-03  9.3272517028203258e-02 -1.6093563091746457e-03 -1.9928266119383893e-03  9.4262948098629229e-02 -9.6802730407666748e-04 -1.9632013004789433e-03  9.4291370020052001e-02 -1.0912570570372681e-03 -2.2022135605369664e-03  9.3447077663705011e-02 -1.3623026639067047e-03 -2.2018194239489509e-03  9.4419254916168802e-02 -7.4520516382987814e-04 -2.1194760321687107e-03  9.4425713667920089e-02 -8.8010658838054109e-04 -2.3884491204082250e-03  9.3633432539284162e-02 -1.1449403335793060e-03 -2.3739363943010286e-03  9.4585076027086296e-02 -5.4338796349396852e-04 -2.2501550328457654e-03  9.4570523242797272e-02 -6.8617549377959612e-04 -2.5459025801497863e-03  9.3823173720196662e-02 -9.4744385763626470e-04 -2.5171330032137977e-03  9.4753234848296120e-02 -3.5739240959332545e-04 -2.3594401075768918e-03  9.4717800698158869e-02 -5.0504328635727030e-04 -2.6799096991669373e-03  9.4011608064433996e-02 -7.6545060366440523e-04 -2.6376626919339800e-03  9.4916429475460834e-02 -1.8435410020870219e-04 -2.4506680030379159e-03  9.4860472339851287e-02 -3.3421673533913266e-04 -2.7942077690811776e-03  9.4194210184574037e-02 -5.9796316741735772e-04 -2.7382973002651767e-03  9.5065656188822331e-02 -2.5483063164723878e-05 -2.5243714867219358e-03  9.4985536047228411e-02 -1.7329354621098300e-04 -2.8875727551969459e-03  9.4365399659808155e-02 -4.3951715848013391e-04 -2.8271430395955658e-03  9.0341819494020884e-02 -3.0775281443615912e-03 2.2515464650743516e-04  9.0853283171759017e-02 -2.8478519386685680e-03 2.3791646157030530e-04  9.1347881485860080e-02 -2.6504554976878644e-03 2.7729949428566340e-04  9.1827339886459886e-02 -2.4901571386776503e-03 3.3275470300533227e-04  9.2297042830947043e-02 -2.3639887446984106e-03 3.9459567015001342e-04  9.2760847255551643e-02 -2.2706865912670198e-03 4.5469349431087830e-04  9.3222516985521114e-02 -2.2077846864748132e-03 5.0671960658403505e-04  9.0925301809146861e-02 -2.6001195297037601e-03 -1.7382204392987536e-03  8.9978724646099892e-02 -3.2274015696491173e-03 -1.9817444019669807e-03  9.1297674887394098e-02 -2.3530654292531405e-03 -1.8521412530200635e-03  9.0382961920243921e-02 -2.9861383707199284e-03 -2.1076204117504841e-03  9.0758436390558153e-02 -2.7660445824918317e-03 -2.2086686684907584e-03  9.1644595162980944e-02 -2.1334531215452856e-03 -1.9406181799090331e-03  9.1114987097412961e-02 -2.5626714852183272e-03 -2.2885285119408549e-03  9.1978030067226060e-02 -1.9355568395683605e-03 -2.0090676454896685e-03  9.1464554568601308e-02 -2.3745133445403879e-03 -2.3518181675954920e-03  9.2305552538065050e-02 -1.7567824211829478e-03 -2.0607586791310168e-03  9.1815824099877416e-02 -2.2032411569005753e-03 -2.4005550348570421e-03  9.2632530747737876e-02 -1.5964798500164607e-03 -2.0984437940310234e-03  9.2174638297258374e-02 -2.0545423688551716e-03 -2.4339104437025049e-03  9.2962861631881014e-02 -1.4570216730266268e-03 -2.1231975637962348e-03  9.2569364690838221e-02 -1.6806618666748059e-03 -1.3899921712473449e-03  9.1626716223195293e-02 -2.1659287398621573e-03 -1.5036954874377317e-03  9.1979363163776487e-02 -1.9143024901294642e-03 -1.5994353863405040e-03  9.2864999630009756e-02 -1.4191635142271587e-03 -1.4856086789299049e-03  9.2306728461029178e-02 -1.6944002802979333e-03 -1.6715151549696278e-03  9.3153330825018116e-02 -1.1915582414481788e-03 -1.5599130752548609e-03  9.2623516979314882e-02 -1.4990900244492443e-03 -1.7260853191007209e-03  9.3436621594761085e-02 -9.9050884331651099e-04 -1.6158196686771062e-03  9.2935976202224199e-02 -1.3250322750376921e-03 -1.7651894126569289e-03  9.3717480291379857e-02 -8.1187628574476965e-04 -1.6560071880497066e-03  9.3249041215532374e-02 -1.1706494197864421e-03 -1.7903316941574607e-03  9.3997602756974996e-02 -6.5326447300611960e-04 -1.6822976470013287e-03  9.3570805869406984e-02 -1.0366217892221440e-03 -1.8004536935101658e-03  9.4276815279828466e-02 -5.1259143292745112e-04 -1.6952867462774834e-03  9.3020879230377648e-02 -1.4422489114078703e-03 -2.8069968951247156e-03  9.3214264286125698e-02 -1.2721161275316036e-03 -2.9469146288959125e-03  9.3406775141388912e-02 -1.1141971758990980e-03 -3.0669957583771648e-03  9.3600916584260341e-02 -9.7151076998009973e-04 -3.1640636158617942e-03  8.9211297440875623e-02 -3.7478626664153585e-03 -1.8470207225853796e-03  8.9674493657395646e-02 -3.5108302157754743e-03 -1.9307971095406677e-03  9.0092065413018424e-02 -3.2961374215081988e-03 -1.9938006586677796e-03  9.0490249366798170e-02 -3.0950659859348925e-03 -2.0410743526306208e-03  9.0882421035716768e-02 -2.9079715098569315e-03 -2.0746006747969547e-03  9.1280437269147779e-02 -2.7356692658831172e-03 -2.0966411869896874e-03  9.1696286916921707e-02 -2.5846277497495454e-03 -2.1023852282228165e-03  9.1793168448728479e-02 -3.3852947093983453e-03 1.3234080758254903e-03  9.2554464525652969e-02 -2.4000823173860731e-03 1.1894574839106443e-03  9.1800832746162242e-02 -3.1332241974712997e-03 8.1979654183559161e-04  9.2067308120172359e-02 -2.4851902682093904e-03 1.1189931493425433e-03  9.2345421987873877e-02 -3.0678994411732653e-03 9.0254667178665251e-04  9.2373146872641754e-02 -3.3543628392597061e-03 1.4130277336756691e-03  9.3039086779863236e-02 -2.3553278927200372e-03 1.2524109454606967e-03  9.2892665833427118e-02 -3.0366100746721373e-03 9.7272631006144726e-04  9.2959892910206496e-02 -3.3626560462456912e-03 1.4849599279593952e-03  9.3529053533143766e-02 -2.3507140318692206e-03 1.2991807147328782e-03  9.2464779052862905e-02 -1.9176018596007123e-03 1.4415457980633385e-03  9.1571509752123817e-02 -2.6122737903183277e-03 1.0502506464620529e-03  9.2352075050176285e-02 -1.9264555305956201e-03 9.2600835171751197e-04  9.2771824005899964e-02 -1.7776574290140378e-03 9.7454791189918765e-04  9.2892757280460758e-02 -1.7826078038816753e-03 1.4954982775407951e-03  9.3183826301836983e-02 -1.6685139604890110e-03 1.0255000140855985e-03  9.3313221228651710e-02 -1.6916414837568710e-03 1.5487619997062781e-03  9.3587400341769586e-02 -1.5979651284519674e-03 1.0714653447125412e-03  9.3725224464775769e-02 -1.6442233771189923e-03 1.5935945462584810e-03  9.3982286901964335e-02 -1.5696199917707907e-03 1.1058708439954945e-03  9.4128957722671172e-02 -1.6430996177212468e-03 1.6241547369823842e-03  9.2846444023898592e-02 -1.6087027125132067e-03 -1.6111775021496440e-03  9.3103684478445220e-02 -1.3461707631157883e-03 -1.7445575089922905e-03  9.3353978212590616e-02 -1.1171233041840621e-03 -1.8513850668162961e-03  9.3601997428457887e-02 -9.1363181193327119e-04 -1.9358995304674265e-03  9.3848348592289035e-02 -7.3049554917698010e-04 -2.0018059955171741e-03  9.4093681199359736e-02 -5.6535062708628931e-04 -2.0508191453651242e-03  9.4338079525050564e-02 -4.1816554305776978e-04 -2.0844155729603181e-03  9.4723238841891474e-02 -9.3642997101797470e-04 -1.5116326778119129e-03  9.4016441247758958e-02 -1.1681250327796506e-03 -1.5938876726170792e-03  9.4189604252507261e-02 -9.0164829201898257e-04 -1.7420416820251347e-03  9.4850030534072746e-02 -6.7432327316477444e-04 -1.6646474683418423e-03  9.4374744553437445e-02 -6.6903040250528522e-04 -1.8611879052461314e-03  9.5000513252353605e-02 -4.4162466034451306e-04 -1.7897182807915476e-03  9.4567283817680273e-02 -4.6036085035066791e-04 -1.9572973268317828e-03  9.5162997822512807e-02 -2.3115102904165382e-04 -1.8924204311135866e-03  9.4762018309972801e-02 -2.6996234355467256e-04 -2.0339598824203392e-03  9.5329976708123085e-02 -3.7712118293423404e-05 -1.9755907983114115e-03  9.4954025894262536e-02 -9.5180103411269003e-05 -2.0931163091379591e-03  9.5494409033930458e-02 1.4219638852061049e-04 -2.0418663977501738e-03  9.5139596088279182e-02 6.4599434556407754e-05 -2.1354097386785220e-03  9.5646552914853772e-02 3.0988131166426446e-04 -2.0927131009834147e-03  9.2014774890498696e-02 -1.9449042905369880e-03 -7.8505122344355624e-04  9.2371104030076090e-02 -1.6912116863113864e-03 -8.2569811315094134e-04  9.2718057150730018e-02 -1.4716520310906517e-03 -8.4792705824195504e-04  9.3057916698788698e-02 -1.2796876422364334e-03 -8.5558449707813999e-04  9.3393234647712695e-02 -1.1128699343980605e-03 -8.5304185009336443e-04  9.3724958705712513e-02 -9.7020379025240929e-04 -8.4280051239296063e-04  9.4053271908721550e-02 -8.5222363121985345e-04 -8.2725276363298085e-04  9.5306360363214174e-02 -7.0221866080355175e-04 -3.7647059763669236e-04  9.4815777969033427e-02 -8.7178540906427218e-04 -7.0442689914309521e-05  9.4578954360273554e-02 -8.9866634030569368e-04 -4.1140734688366331e-04  9.4766421594922420e-02 -6.4412727979309373e-04 -4.3075637279969803e-04  9.4979523476521083e-02 -6.3166526140839353e-04 -7.1905862822113111e-05  9.5453086985123156e-02 -4.5238586828718328e-04 -3.9099482832452841e-04  9.4973458440598291e-02 -4.2047269689227416e-04 -4.4524769712324055e-04  9.5173327649413650e-02 -4.1707064251053698e-04 -7.1766709603263373e-05  9.5624172773812854e-02 -2.2872040833962762e-04 -4.0561067570650181e-04  9.5191501801397016e-02 -2.2205524580705139e-04 -4.5284828851612874e-04  9.5381019718393786e-02 -2.2455375711344407e-04 -6.7666082747617242e-05  9.5808492548274712e-02 -2.7811292519511470e-05 -4.1504125463139859e-04  9.5412730515738661e-02 -4.4762717390334260e-05 -4.5286075171522362e-04  9.5591752349348622e-02 -5.1215473469016838e-05 -5.8486920826531049e-05  9.5999026312647756e-02 1.5386118660778455e-04 -4.1706825767773048e-04  9.5630017422722077e-02 1.1481765570645515e-04 -4.4491380016562643e-04  9.5795617378430939e-02 1.0664944737431144e-04 -4.3841150622727462e-05  9.6189390404223057e-02 3.2030394609861501e-04 -4.1065581394329872e-04  9.5835228139033959e-0