<?xml version="1.0"?>
<VTKFile type="UnstructuredGrid"  version="0.1"  >
<UnstructuredGrid>
<Piece  NumberOfPoints="978" NumberOfCells="4133">
<Points>
<DataArray  type="Float64"  NumberOfComponents="3"  format="ascii">7.756346543560839 3.985815953288962 2.626919644788184  7.641986783248147 4.011301550186336 2.62110819494618  7.69002750012586 4.001074645001665 2.757934063608752  7.707404812237086 4.059774471468604 2.756914221083961  7.657446609946667 4.069641991651911 2.619865797758573  7.768572389223087 4.043477326014183 2.628374436004047  7.724529136249416 4.118737320626375 2.756113626809114  7.672653256512517 4.128236787208876 2.618817185317212  7.780593917599284 4.101355522194165 2.629996807086159  7.741585600862687 4.177943968035956 2.755393827988798  7.687785267949344 4.187041003066472 2.617845230664065  7.792570723571585 4.159461331265504 2.631673538318617  7.758755152857717 4.237329760658588 2.754645408149828  7.703007930295865 4.246011942880838 2.616857543280048  7.804649192956331 4.217783399205834 2.633336050486284  7.776214329158553 4.296828429496322 2.753786186186359  7.718498660261585 4.305114048769888 2.615777293702209  7.817001570615628 4.276341403894413 2.634916464170793  7.794235213696831 4.356328577747814 2.752698034290422  7.734501150847785 4.364302055277746 2.614484847435176  7.829900255664599 4.335167068366461 2.636315966074616  6.280491086515354 4.117740947791112 2.663498268874296  6.296397624963699 4.105411086288909 2.831994576040755  6.365077596748239 4.174020413317361 2.740937593059936  6.327128890187447 4.230689257558859 2.746786595650759  6.256338764132637 4.158095285805604 2.842701128357591  6.24274054661562 4.171912704514685 2.668015685283197  6.289715395711887 4.287549697958701 2.752543517139334  6.216682890509758 4.21113877381593 2.853334023670448  6.205451846345365 4.22635626504315 2.672453405062706  6.252561326600092 4.344418015933704 2.758294252855424  6.17721254944169 4.264329591939813 2.863981484426617  6.168401081669483 4.280904509198016 2.676889838263557  6.21546370304655 4.401173984810493 2.764072637404557  6.137747695182673 4.317491287944208 2.874677857363377  6.13138494054353 4.335406689301482 2.681377099110424  6.178270346813735 4.457697360686915 2.769872676884617  6.098123594174035 4.37046611621648 2.88541910193603  6.094222518126272 4.389703984618903 2.685908320026167  6.140863324292661 4.513879251004543 2.77568698150929  6.058181900567369 4.423077250436206 2.89615500626206  6.056735518471721 4.443603546213046 2.690470592076047  7.98815861405948 3.930132528059549 2.819869017469321  7.915336958609338 3.950083013134791 2.743931240682197  7.892306110521463 3.944378168862724 2.871717567931367  7.905913470978318 4.002001029784148 2.875279114600418  7.925449240408911 4.006815935519147 2.747866416197219  7.998073269355079 3.986593985825855 2.824886001327856  7.919336663202399 4.059901105919251 2.879059240303981  7.935404264384037 4.063773527631564 2.751965702131578  8.007861192954108 4.043315821297057 2.830073929942623  7.932752328350405 4.118071453367064 2.882910541818835  7.945352293700624 4.120992122748174 2.756137009194059  8.017653439827582 4.100303237872749 2.83533281899706  7.946305429237696 4.176480471052471 2.886729136324044  7.955420763492657 4.178473579786985 2.76028602664644  8.027572055787594 4.157569573159343 2.840570011982723  7.96013572929394 4.235104474734189 2.890436008152347  7.965745183094176 4.236256016801948 2.764354265567984  8.037726946359058 4.215157543798894 2.845744550024389  7.974448765127627 4.293936732743047 2.89391177706282  7.976502203582214 4.294388644950223 2.768272988974759  8.04829669620559 4.273168836471797 2.850759374863022  6.428590941215169 4.214921432922246 2.631812409407768  6.530764483731806 4.25194918132875 2.524068473558486  6.419406675993569 4.205967828306739 2.481753725718781  6.390292899445712 4.267424549390146 2.476705723277716  6.507756889337642 4.31763797384867 2.51721575548505  6.396265006913554 4.275948897654887 2.63150345042143  6.361733242036893 4.328729020701076 2.471631989917895  6.485255380016342 4.382925893856005 2.510355148875119  6.364532210981133 4.336931726951797 2.63109205134821  6.333477341594358 4.38987644604431 2.466594681633456  6.463011384840682 4.447892165566166 2.503532403336042  6.333104523335903 4.397797362737105 2.630691726822029  6.305339206528576 4.450830874801172 2.46157719095067  6.44086616511166 4.51261393559802 2.496727392336971  6.301779038089305 4.45848683359867 2.630295015318184  6.277164345983062 4.511537294740768 2.45657831395137  6.4186737123263 4.577110693226421 2.489998435280091  6.270421132595978 4.518940666396166 2.629907098612235  6.248755428575539 4.571924677633542 2.451657799532345  6.396322433771247 4.641331703551149 2.483393544614171  6.238828832012846 4.579060907308867 2.629646232890659  7.570989016019495 4.041264728164146 2.734663722064379  7.591986788204153 4.100350478533107 2.73023031160077  7.612702515012336 4.159719273322146 2.726005561406476  7.633333872371817 4.219304982229756 2.721866664499858  7.654059239769688 4.279024276238662 2.717703635380811  7.675056665285436 4.338782069459918 2.713454566820923  7.696566479496979 4.398430507927329 2.708993272246416  7.809549911935015 3.970456803800995 2.723898799786645  7.821940252735507 4.027950517061744 2.725331399295184  7.834140569069448 4.08577131442286 2.726938644823606  7.84630268740199 4.143823213431173 2.728609822854427  7.858582143549969 4.202095295297696 2.730257065821509  7.871135178761512 4.260599269508427 2.731817163873946  7.884212441100548 4.319372723676367 2.733156445801286  6.762467698048972 4.461167297545668 2.107418888575442  6.87414134931498 4.470830326677144 2.185821721925074  6.741939854448191 4.515362510337028 2.257221953408501  6.739872593080652 4.449853692710221 2.273657480777407  6.885426338254344 4.533313862736065 2.167981674160741  6.766537899549672 4.524156632965815 2.088192790117358  6.744020950770684 4.580621755355931 2.240905906630909  6.77067811707875 4.586900027158905 2.069052347503811  6.896854754737626 4.595494166833267 2.150274413747414  6.746136525315138 4.645621868036538 2.224749799814055  7.792868566914091 3.974177812097957 2.822425636863768  7.808138559377344 4.032515642014587 2.823485888851099  7.823209079928778 4.091206146334235 2.824762732485139  7.838257064094502 4.150132170174357 2.82611759571004  7.853443487355087 4.209267784588235 2.827431266193812  7.86894267836764 4.268590026070552 2.828626109812327  7.885002502139682 4.328070714340559 2.829581317633941  6.600223212326989 4.470066631628675 2.143373103543341  6.593472602734042 4.533853876180566 2.125677633266163  6.586661524464913 4.597389777789473 2.108096333134603  6.314284740644849 4.14499128525523 2.545921064925006  6.279393440116539 4.201622293245148 2.546351101634833  6.245097587972038 4.258354855858705 2.546708457496594  6.211084347917674 4.31509306177179 2.54708038055015  6.177148854946936 4.371734684550891 2.547489605297348  6.143125532974137 4.42815241028551 2.547917694468687  6.10885640994248 4.484203070638053 2.548347531323828  7.533713061238597 4.044188941694779 2.607375019859374  7.552038721696552 4.102889375071223 2.603412170114789  7.570086498519329 4.161846659955221 2.599633821878596  7.588037845397555 4.220989580907378 2.595940942725913  7.606065973895574 4.280253160699804 2.592231364489786  7.624346274257412 4.33957108750511 2.588441432735995  7.643131579110362 4.398842578904764 2.584437879572134  7.331428471994383 4.111917579640309 2.575336998613384  7.244393464892187 4.136089500131934 2.495127459645501  7.261401873342969 4.155296203761813 2.630339014921666  7.287690529290541 4.214826609770037 2.618903023683755  7.268355736324733 4.194657449529109 2.483952977722248  7.355708421673623 4.170290577385844 2.565571278459343  7.313545502030393 4.274507354558862 2.607602189538437  7.291891814588841 4.25337821754183 2.472898010207557  7.379612741387857 4.228884378495607 2.555939705846198  7.33918996884122 4.334240885631619 2.596387722773365  7.315207392061202 4.312159976026097 2.46192886429876  7.403331795499975 4.28760061427181 2.546388466611516  7.364819598001485 4.393936431074713 2.585227332381297  7.33849737741077 4.37091709963466 2.451017283597086  7.427045655691552 4.346343565973514 2.53687777941702  7.390606686211241 4.453493161620882 2.574098064073223  7.36195179572577 4.429553822781834 2.440139924257017  7.4509396723228 4.405017555380498 2.527379781769358  7.416736780124497 4.512735177319764 2.562911596829463  7.385826932189281 4.487872470452896 2.429219715319716  7.47530667382132 4.463415143420233 2.517790179126575  7.160140189047128 4.192510589869405 2.590182642100577  7.18435238113996 4.253763226552114 2.578649129022081  7.208098891056515 4.31504969880273 2.567237841396839  7.231620158183067 4.376301150949211 2.555908267323441  7.255090079321993 4.437444487123329 2.544641362675167  7.278650405776587 4.498393318509221 2.533433683944117  7.302459447221463 4.559007562755198 2.522235423073197  6.319710007460778 4.134574634144127 2.296102026605398  6.422601545958945 4.186626678267928 2.351648719008537  6.430918099366043 4.171863853613894 2.236096657244806  6.407470616408875 4.233558564798969 2.223394509106033  6.395445533203159 4.247713943453482 2.342565423992385  6.290919414134242 4.193412394673486 2.288577103198908  6.384592737753294 4.294962069072503 2.210779145863261  6.368882091873817 4.308570228697267 2.333518481055406  6.262643910761674 4.25227882442397 2.281077775301708  6.528438124609503 4.259373477287262 2.843829457286887  6.450023717236292 4.220087442979501 2.789974657957552  6.464482187217543 4.215187688615488 2.929425751532187  6.415514250614006 4.281496309612709 2.79424050415266  6.499265890968694 4.325630255395287 2.848342771516746  6.425922985252949 4.274818754513857 2.940131586165983  6.387942801393215 4.33453219918128 2.950704245711454  6.381607567108603 4.342805686806542 2.798395031921997  6.470633280456143 4.391607944665082 2.852712033057635  6.350208742944023 4.394166633622571 2.9612312838889
[...]
<PointData  Vectors="f_16"> 
<DataArray  type="Float64"  Name="f_16"  NumberOfComponents="3" format="ascii">2.4480967055059755e-02 -1.4267602149753819e-02 6.0655239559307492e-03  2.5313278638487105e-02 -1.2782531633969543e-02 6.3929835150287667e-03  2.5030950778829546e-02 -1.2919936051937459e-02 6.8415613603160421e-03  2.5841812177995433e-02 -1.3149582714937134e-02 6.6073047325467286e-03  2.6123466360347018e-02 -1.2971539100220735e-02 6.2247257580360840e-03  2.5220311372118529e-02 -1.4436144992562041e-02 5.9052320908151478e-03  2.6590126385467018e-02 -1.3305064172756419e-02 6.4124778510201820e-03  2.6866136133528184e-02 -1.3091272099231980e-02 6.0958267238944040e-03  2.5904367630649731e-02 -1.4527453578881784e-02 5.7826674635286894e-03  2.7310089951183121e-02 -1.3402140029442212e-02 6.2413302183851023e-03  2.7577342199812081e-02 -1.3154286858740070e-02 5.9921397814554356e-03  2.6567324487134111e-02 -1.4550583055763245e-02 5.6835505902613423e-03  2.8039499940993133e-02 -1.3458731946711834e-02 6.0779226547161211e-03  2.8298408106292274e-02 -1.3176004319057013e-02 5.8978622914994307e-03  2.7251248537009810e-02 -1.4515984027770767e-02 5.5897998486956983e-03  2.8821286568512790e-02 -1.3501455173425181e-02 5.9035572867224039e-03  2.9076552801993210e-02 -1.3180712211854165e-02 5.7928081443467854e-03  2.8007507364870472e-02 -1.4439132286108245e-02 5.4754681666478178e-03  2.9596285781350387e-02 -1.3517027759925138e-02 5.6489821990503833e-03  2.9870661362595526e-02 -1.3157535537813904e-02 5.6251222205578330e-03  2.8723284930610021e-02 -1.4285590351944915e-02 5.3155101551478189e-03  4.8104388223956178e-02 -1.3844166425900379e-02 6.1080639129066083e-03  4.7881462078628617e-02 -1.3844284747655507e-02 7.0428542765064925e-03  4.5589094659277143e-02 -1.2099020809916955e-02 6.5676625393964270e-03  4.4276615326843592e-02 -1.2882942734775759e-02 6.6063023426806032e-03  4.6538807577726868e-02 -1.4818269495659120e-02 6.9674932712242427e-03  4.6708875661452216e-02 -1.4749889408245986e-02 6.1131536812726057e-03  4.2963223245755300e-02 -1.3669958013568725e-02 6.5449887759218015e-03  4.5276219661253760e-02 -1.5690219830706630e-02 6.7994554543839431e-03  4.5352107125829315e-02 -1.5607371055015119e-02 6.0397669648397760e-03  4.1718947179478993e-02 -1.4441401417691940e-02 6.4843613735612125e-03  4.4046693925490703e-02 -1.6526598678084242e-02 6.6302862792805492e-03  4.4044237155656030e-02 -1.6438131277811522e-02 5.9689991379928246e-03  4.0496509358204209e-02 -1.5244611550394369e-02 6.4394358771162619e-03  4.2832149047971148e-02 -1.7355879422648806e-02 6.4749515422701034e-03  4.2754466060414512e-02 -1.7277236525438788e-02 5.9124108045286485e-03  3.9248418195676739e-02 -1.6118236305914607e-02 6.4239024431892375e-03  4.1584092813372941e-02 -1.8223593030026707e-02 6.3489818883121513e-03  4.1432948475919829e-02 -1.8160628180320722e-02 5.8829821956206179e-03  3.7934261662635138e-02 -1.7114857218780248e-02 6.4482891599722727e-03  4.0217612387671083e-02 -1.9237193937942501e-02 6.2639225129252031e-03  4.0001267664919418e-02 -1.9160370036458957e-02 5.8972675549258365e-03  2.3214004797744745e-02 -1.6356501779031075e-02 5.8549294163273745e-03  2.3551869430357451e-02 -1.5820493175664675e-02 5.8920007491249432e-03  2.3734079900157707e-02 -1.5016692643884314e-02 6.5901361486927490e-03  2.4451056398246483e-02 -1.5213179306498504e-02 6.2924781015549717e-03  2.4206564694120376e-02 -1.5983087058024426e-02 5.6870407797420261e-03  2.3834522572373108e-02 -1.6518867828827527e-02 5.6158161261880730e-03  2.5122645285101400e-02 -1.5329834191571254e-02 6.0355681735054017e-03  2.4818214325411477e-02 -1.6063589935556788e-02 5.5217545824585365e-03  2.4418044256068021e-02 -1.6596234219182316e-02 5.4108658563453722e-03  2.5780748476312679e-02 -1.5375867000742092e-02 5.8003334710352563e-03  2.5420074794058535e-02 -1.6067640209377867e-02 5.3764059977149574e-03  2.4995680052898563e-02 -1.6593384814469200e-02 5.2236944220100806e-03  2.6459899753068155e-02 -1.5363570815796191e-02 5.5649239192035235e-03  2.6051287012931308e-02 -1.6000938234949202e-02 5.2310504001524712e-03  2.5605302420570752e-02 -1.6516191845065174e-02 5.0301059149449765e-03  2.7181691175193479e-02 -1.5303394947497381e-02 5.2987991556109719e-03  2.6734072059125587e-02 -1.5862477325810819e-02 5.0573482168293545e-03  2.6242214659794125e-02 -1.6354961092085601e-02 4.8169525857459363e-03  2.7814443854069022e-02 -1.5138037494930465e-02 4.9807541835450450e-03  2.7322912110263536e-02 -1.5598384254458133e-02 4.8581554336420713e-03  2.6764867230197529e-02 -1.6054276577547818e-02 4.5978967729535533e-03  4.3946817727274413e-02 -1.0501954385114746e-02 5.9774401098281341e-03  4.1688851567656761e-02 -8.4933394276630932e-03 5.4136571262925776e-03  4.4192218349146162e-02 -1.0343953059070472e-02 5.1658088009724342e-03  4.2869449123073194e-02 -1.0689703071136094e-02 5.2365191880250376e-03  4.0561491468674868e-02 -8.4655210960957253e-03 5.4789238841203942e-03  4.2632962118045029e-02 -1.0991903481901488e-02 6.0799880628130392e-03  4.1478518021227331e-02 -1.1180932563845371e-02 5.3116670830877458e-03  3.9332603011024397e-02 -8.6915145692538134e-03 5.5656156352352206e-03  4.1274985134949253e-02 -1.1575725876303665e-02 6.1117925686759349e-03  4.0213756514133364e-02 -1.1715697665817726e-02 5.3843301290671091e-03  3.8265833068322000e-02 -9.0533284672704595e-03 5.6508298741241988e-03  4.0032643400062594e-02 -1.2183027947871634e-02 6.1408288578721527e-03  3.9002050498541094e-02 -1.2327209686028504e-02 5.4775971237009738e-03  3.7250257245735420e-02 -9.5274173242736338e-03 5.7606801861981791e-03  3.8837276237213773e-02 -1.2855911755715897e-02 6.1871720560881058e-03  3.7789229426606265e-02 -1.3037981036890328e-02 5.6107537904862030e-03  3.6236762250140227e-02 -1.0102698906361354e-02 5.9164022218398983e-03  3.7643418907212498e-02 -1.3618648467524331e-02 6.2692777746453593e-03  3.6528666291775660e-02 -1.3865180960455659e-02 5.7961828363729600e-03  3.5182148436517506e-02 -1.0793451996626624e-02 6.1386749891558408e-03  3.6404027382927626e-02 -1.4500214291123640e-02 6.4001938065420486e-03  2.6164201224218097e-02 -1.1435709810627456e-02 6.9702543406560272e-03  2.7000569197103013e-02 -1.1677251631185735e-02 6.7660278548231896e-03  2.7762643754608716e-02 -1.1861498787526297e-02 6.5951241977609465e-03  2.8489164059964055e-02 -1.2001059609241246e-02 6.4467355327703655e-03  2.9218494349021507e-02 -1.2115404636847321e-02 6.3097369061253317e-03  2.9989947221801479e-02 -1.2231383826967149e-02 6.1714784018042628e-03  3.0798943379723758e-02 -1.2369836602569267e-02 5.9686911025856361e-03  2.4119621233721057e-02 -1.4608846909031184e-02 6.2874761143808617e-03  2.4848512994006165e-02 -1.4793918405765804e-02 6.0805263321320642e-03  2.5530656379109111e-02 -1.4899249479356171e-02 5.9103244753501028e-03  2.6194552981714112e-02 -1.4934460877338481e-02 5.7629353776463199e-03  2.6880978780138370e-02 -1.4910576898397865e-02 5.6194919704345581e-03  2.7630531760356899e-02 -1.4847718786751155e-02 5.4524923110385905e-03  2.8315660273038865e-02 -1.4690098521387038e-02 5.2354435551645578e-03  3.6962738427447524e-02 -5.5188313731263563e-03 3.5163663508639411e-03  3.6309376498507046e-02 -5.2133879195826998e-03 4.1107134204185717e-03  3.6492223813767072e-02 -5.4866411611877311e-03 4.4870852482582586e-03  3.6896549293195351e-02 -5.3812694976016198e-03 4.3891839020198517e-03  3.6219540782026972e-02 -5.3698473747433376e-03 4.2256055580593291e-03  3.6664028098540809e-02 -5.6870648902229487e-03 3.6202812040675419e-03  3.6096515436015317e-02 -5.7142177024694166e-03 4.6523115062472031e-03  3.6379730726643460e-02 -5.9830326239266466e-03 3.7933367624876663e-03  3.6153882110517233e-02 -5.6433564387923961e-03 4.4185855799967885e-03  3.5713275416907206e-02 -6.0129649444520920e-03 4.8874685090356590e-03  2.4355203845989923e-02 -1.3991366081940931e-02 6.7728346786793724e-03  2.5123179403828806e-02 -1.4202629628001813e-02 6.5052957093436692e-03  2.5840357508349402e-02 -1.4338641472657628e-02 6.2760482879432823e-03  2.6538247825614744e-02 -1.4409201846410946e-02 6.0691899920916588e-03  2.7255501334078582e-02 -1.4430914966763582e-02 5.8654262910661495e-03  2.8021481870795242e-02 -1.4427261264504923e-02 5.6436708793839111e-03  2.8728247582637641e-02 -1.4349710252482677e-02 5.3384289779115053e-03  3.7490877064559114e-02 -6.6245745535322498e-03 3.6768492275912369e-03  3.6837048520091266e-02 -6.9016073523804405e-03 3.8094498732545879e-03  3.6187115905230917e-02 -7.3145313005977507e-03 4.0108091344448673e-03  4.7080049242831226e-02 -1.2783662499030835e-02 5.4884538417095934e-03  4.5675532592456082e-02 -1.3519945069659410e-02 5.5556963498035418e-03  4.4265417582776058e-02 -1.4271929226604311e-02 5.5682194815510335e-03  4.2923405971780945e-02 -1.5012717113742304e-02 5.5812484780642362e-03  4.1607529339171258e-02 -1.5785228098030124e-02 5.6100907336722227e-03  4.0269898471338154e-02 -1.6629476904850893e-02 5.6695057930515489e-03  3.8859366782575386e-02 -1.7595492235128692e-02 5.7646370279866516e-03  2.6351517756674048e-02 -1.1380044383939475e-02 6.5129271338442716e-03  2.7194971070950025e-02 -1.1568678117917336e-02 6.3626316364216260e-03  2.7957997109231161e-02 -1.1703356233436664e-02 6.2467805568005349e-03  2.8682802857104905e-02 -1.1795973243039905e-02 6.1541616395391456e-03  2.9410141171065867e-02 -1.1864978144930392e-02 6.0737660259951249e-03  3.0184441379034834e-02 -1.1935982462615269e-02 5.9904288896662199e-03  3.1016913935399168e-02 -1.2024622522289806e-02 5.8637896722211124e-03  2.8718886828112265e-02 -8.9204451793258119e-03 6.4208609750368130e-03  2.9870689781957865e-02 -8.1086305678839815e-03 6.0327538832786300e-03  2.9919289479555640e-02 -7.9873547185955532e-03 6.6126370154181028e-03  3.0611878710585110e-02 -8.1105239411256545e-03 6.4615011326277566e-03  3.0588778997943544e-02 -8.1939619010414511e-03 5.9133924188341626e-03  2.9485364236605912e-02 -9.0790438995375644e-03 6.2938403515966383e-03  3.1276945576764123e-02 -8.2329246806278674e-03 6.4033724623081354e-03  3.1260630271727381e-02 -8.2703295883678109e-03 5.8785524529417522e-03  3.0197211784455284e-02 -9.2113042220895343e-03 6.2269307224033796e-03  3.1874893392050511e-02 -8.3629784714510779e-03 6.3598475878922081e-03  3.1865205992333973e-02 -8.3536759138525159e-03 5.8548243799475775e-03  3.0853129807590272e-02 -9.3369756500196015e-03 6.1736546374510119e-03  3.2458010943795419e-02 -8.5313050701464853e-03 6.3354650432701672e-03  3.2453229141108555e-02 -8.4734127978171401e-03 5.8490797649948124e-03  3.1497545130652393e-02 -9.4789923556353704e-03 6.1357964059470145e-03  3.3077076279482934e-02 -8.7667439002106860e-03 6.3358083426286503e-03  3.3083049350450783e-02 -8.6606919141360740e-03 5.8655781771961880e-03  3.2184810386643510e-02 -9.6655794355148816e-03 6.1135990492485479e-03  3.3774642179862334e-02 -9.1032632463331695e-03 6.3688755679045510e-03  3.3814370049424537e-02 -8.9634956473456893e-03 5.9123448600245905e-03  3.2976632513880694e-02 -9.9442264669761284e-03 6.1116128090204702e-03  3.1377164165280191e-02 -7.0857314753671203e-03 6.3683898890538205e-03  3.1976809756621420e-02 -7.0659623271289553e-03 6.2332106852501980e-03  3.2573803943128449e-02 -7.0993710109874611e-03 6.2013219963996955e-03  3.3085290994402744e-02 -7.1672030708178347e-03 6.1933154414831890e-03  3.3566879846406168e-02 -7.2989913204658391e-03 6.2121022394045254e-03  3.4067939038961034e-02 -7.5184527668932704e-03 6.2665533424560759e-03  3.4623477018994805e-02 -7.8416711658595602e-03 6.3664357911870561e-03  4.7044462192938008e-02 -1.2229759188228795e-02 4.1631042730258206e-03  4.4446311100731460e-02 -1.0109359840838808e-02 4.4815657805687050e-03  4.4403809182257836e-02 -9.8957401705649511e-03 3.8870758310875124e-03  4.3150506692651767e-02 -9.9439537088782462e-03 3.7916028756336453e-03  4.3172240491354458e-02 -1.0320088853010169e-02 4.4717187685167281e-03  4.5602198031844579e-02 -1.2668775528358427e-02 4.1959678675900104e-03  4.1822205972471875e-02 -1.0168420831538870e-02 3.8484877341089427e-03  4.1799639351756603e-02 -1.0698814168770873e-02 4.5581567884250152e-03  4.4124201223704293e-02 -1.3180488254607992e-02 4.2869626844717250e-03  4.1597492404374783e-02 -9.3282957476704363e-03 7.1923412056913395e-03  4.3455388104572786e-02 -1.0530552885131167e-02 6.8528314880481455e-03  4.3174903955995332e-02 -1.0625508276069093e-02 7.6791034284890997e-03  4.2187724721525807e-02 -1.1076552773642688e-02 6.9517899382552286e-03  4.0385454874313165e-02 -9.6132832452223115e-03 7.3269679506599928e-03  4.1966273090538846e-02 -1.1287419746701001e-02 7.7209538198229856e-03  4.0756169089433913e-02 -1.1975868137260190e-02 7.6137889313034786e-03  4.0885468063046958e-02 -1.1697323732588263e-02 6.9232710893249293e-03  3.9156007466338114e-02 -1.0047262315900233e-02 7.3258143039913815e-03  3.9636503633359826e-02 -1.2664112457819142e-02 7.5041534051446873e-03  3.9689727301215505e-02 -1.2330840192855982e-02 6.8884854179753416e-03  3.8063156653781530e-02 -1.0550165612417128e-02 7.3123978580824133e-03  3.8540359127955316e-02 -1.3403544317659881e-02 7.4043701785027434e-03  3.8535273842677485e-02 -1.3021698467385089e-02 6.8702136703878078e-03  3.6178280651044850e-02 -1.4665587610750824e-02 6.9469244410581632e-03  3.4833171116866971e-02 -1.2530887375330231e-02 7.4448599982073517e-03  3.6281019800512397e-02 -1.5125462302153716e-02 7.2801079061922879e-03  3.5961754615679312e-02 -1.1784006946095219e-02 7.3555458509236933e-03  3.7379227020159340e-02 -1.3791506853609381e-02 6.8853978771219494e-03  4.1841737437185902e-02 -9.1070794361527013e-03 6.4520000568472962e-03  4.1918263147352287e-02 -8.9698815416957497e-03 5.9626867816895213e-03  4.0728645290224512e-02 -9.1287815584172715e-03 6.0656014676785247e-03  4.0679820444328614e-02 -9.3192141456771901e-03 6.5866421040536444e-03  3.9428595503456593e-02 -9.7335675885649123e-03 6.6402708022035226e-03  3.9474915314412572e-02 -9.4981126924632564e-03 6.1405497152207025e-03  3.8326041104252903e-02 -1.0231434659318828e-02 6.6779900971869312e-03  3.8361943203927502e-02 -9.9625715130412535e-03 6.2050034637005725e-03  3.7270683469994362e-02 -1.0814233966316124e-02 6.7325059012232191e-03  3.7298434887244325e-02 -1.0521530016429196e-02 6.2912804227469830e-03  3.6212296874687307e-02 -1.1479539211719198e-02 6.8253116124999480e-03  3.6232672954892374e-02 -1.1174980449475964e-02 6.4212404842359933e-03  3.5103784277254010e-02 -1.2251542253892182e-02 6.9682190663894108e-03  3.5098439102710717e-02 -1.1922709943325010e-02 6.6113917880565778e-03  4.9344238748068342e-02 -1.5022393971046316e-02 7.7045903500414653e-03  4.6258698289194648e-02 -1.2690034543611449e-02 7.9273860379441129e-03  4.5010974301410052e-02 -1.3629526811311550e-02 7.8301577957565621e-03  4.6764115659291568e-02 -1.2315731244195226e-02 4.8998490951717424e-03  4.5356774784341435e-02 -1.2908048443230090e-02 4.9610536032375450e-03  4.3912173748290192e-02 -1.3564058183800153e-02 5.0206184827450090e-03  4.2554808824310897e-02 -1.4220771999698460e-02 5.0796377477231999e-03  4.0557466296405283e-02 -1.1155648602477350e-02 4.6435349573857561e-03  4.5053768450321094e-02 -1.1741406727615188e-02 7.1948241003040123e-03  4.3796160621040574e-02 -1.2574727464179439e-02 7.2271632151461526e-03  4.2564202428187724e-02 -1.3367491940810640e-02 7.1154585501158885e-03  4.1386234736430043e-02 -1.4148252247931483e-02 7.0020178454941844e-03  4.0231107094257097e-02 -1.4954659517903427e-02 6.9004856125629175e-03  3.7806245223374349e-02 -1.6812513187896370e-02 6.7715493997644229e-03  2.5991673440224936e-02 -1.1743976379363507e-02 8.7144720342170919e-03  2.6731270620086924e-02 -1.0907210041391150e-02 8.8730867526139075e-03  2.7626918978362506e-02 -1.0151363814324164e-02 9.4502550840956864e-03  2.7543448243105850e-02 -1.1111676777572216e-02 8.3511550656075566e-03  2.8435594963337241e-02 -1.0272712358979450e-02 8.9034475983539620e-03  4.2820173873464248e-02 -9.0470805122924540e-03 4.8370159516362031e-03  4.1610657023343649e-02 -9.0833150418023097e-03 4.8274604996294147e-03  4.0306585195915151e-02 -9.3442958920445761e-03 4.9151945083912001e-03  3.9160259140622877e-02 -9.7195012924251867e-03 5.0037257984604597e-03  3.8071284097716374e-02 -1.0202225408180474e-02 5.1205996249416002e-03  3.6984572159592492e-02 -1.0792189415775125e-02 5.2821043868550837e-03  3.5872662396036412e-02 -1.1498883399372233e-02 5.5008413450627321e-03  2.4775052090454212e-02 -1.3181630476813724e-02 7.3181441495166859e-03  2.5568845593075543e-02 -1.3432193326889696e-02 6.9811343443975347e-03  2.6307901460340788e-02 -1.3607664824201324e-02 6.6831664864826883e-03  2.7022983252910662e-02 -1.3722530313250792e-02 6.4071705977666151e-03  2.7749678978337040e-02 -1.3795949326377930e-02 6.1354442923147378e-03  2.8510748490327194e-02 -1.3853617618620034e-02 5.8434315998816665e-03  2.9231291179220877e-02 -1.3869803851720744e-02 5.4656618572627843e-03  2.9540891601345706e-02 -8.6458955101848846e-03 8.8191653520534909e-03  3.1467364411998544e-02 -7.6134262933562208e-03 9.3314733039634723e-03  3.0336503232921787e-02 -8.1920481646999260e-03 9.4085133176026667e-03  3.1014994160317184e-02 -8.3515595488311330e-03 9.0324299885595604e-03  3.2090766459426226e-02 -7.6203195699276940e-03 9.0510871031109115e-03  3.0236520194995519e-02 -8.8838561565464224e-03 8.4641272975531177e-03  3.1612096141225836e-02 -8.4949826060197898e-03 8.6659742201726838e-03  3.2619878229793189e-02 -7.6793596278374445e-03 8.7711889876934245e-03  3.0872435971976767e-02 -9.0982478804993907e-03 8.1321250960380773e-03  3.2138672964089711e-02 -8.6409649393449431e-03 8.3149966586243060e-03  3.3073965447711545e-02 -7.7777314681654669e-03 8.5055710046537600e-03  3.1447456758965958e-02 -9.3060577492796118e-03 7.8184842493331849e-03  3.2650317399517202e-02 -8.8139927215616348e-03 7.9698529716235953e-03  3.3509547886734915e-02 -7.9214264567103853e-03 8.2510993420213275e-03  3.2009527680042359e-02 -9.5327405497738892e-03 7.5174503714339853e-03  3.3185782736112238e-02 -9.0256278511007849e-03 7.6248924237216197e-03  3.3961303577603623e-02 -8.1162612160196219e-03 8.0068830250023641e-03  3.2594167709783892e-02 -9.7912027217868531e-03 7.2267172678910484e-03  3.3781702267623719e-02 -9.2870372326499893e-03 7.2763671862285731e-03  3.4447819219403632e-02 -8.3645832196720584e-03 7.7772686899258018e-03  3.3244218116523214e-02 -1.0098028874221213e-02 6.9447643647170274e-03  3.5934864111426233e-02 -6.1209793410269735e-03 6.1874780143190630e-03  3.7415594647386946e-02 -6.3984863652349873e-03 5.8011255853908381e-03  3.7046409844971609e-02 -6.5392722945251894e-03 6.5858471985947202e-03  3.6698886101172577e-02 -6.0112369530730828e-03 6.6867357687856602e-03  3.7052394196671667e-02 -5.8090758265438901e-03 5.8492482694239558e-03  3.5911452448802006e-02 -5.5884257892101583e-03 6.2251631489238547e-03  3.6291194344180940e-02 -5.7824555371877757e-03 6.7552917680789694e-03  3.6626015526301500e-02 -5.5535547856072282e-03 5.9059228537735459e-03  3.5801706264664071e-02 -5.3341607613671300e-03 6.2664277306921212e-03  3.5863567670313609e-02 -5.7599634243826817e-03 6.8345093259340210e-03  3.6184107360093885e-02 -5.5202034206204799e-03 5.9911895592677181e-03  3.5629655125199514e-02 -5.2698834012819152e-03 6.3327574754743054e-03  3.5434465357469171e-02 -5.8819541396167479e-03 6.9475909061013780e-03  3.5745219177377531e-02 -5.6396556669160497e-03 6.1204342397110515e-03  3.5438051790975172e-02 -5.3468508690157467e-03 6.4410769344785375e-03  3.5012139743548124e-02 -6.1144681263647976e-03 7.1129966142934832e-03  3.5315044972441166e-02 -5.8747762077085205e-03 6.3049084253312751e-03  3.5249690648467169e-02 -5.5365437456877395e-03 6.6047844728679981e-03  3.4602618685478599e-02 -6.4365524226468879e-03 7.3462571427840252e-03  3.4894873404395850e-02 -6.2056655573117757e-03 6.5529386994345306e-03  3.5074897736777660e-02 -5.8300585321872231e-03 6.8351428097065334e-03  4.9618064178133893e-02 -1.4732023013221029e-02 4.7584102596912150e-03  2.4284426336303198e-02 -1.5145862746036349e-02 5.3900000559282480e-03  2.5034882310121350e-02 -1.3870446481933325e-02 5.6518163504310596e-03  2.5774504656