<?xml version="1.0"?>
<VTKFile type="UnstructuredGrid"  version="0.1"  >
<UnstructuredGrid>
<Piece  NumberOfPoints="926" NumberOfCells="3936">
<Points>
<DataArray  type="Float64"  NumberOfComponents="3"  format="ascii">1.03060011208329 2.114735987778004 0.960245141545079  1.015695087570966 2.246819545346341 0.887211305375292  1.137248837827948 2.229303083608117 0.9075905938553848  1.144934975333585 2.195873742890878 0.8428553360405681  1.020658016552287 2.213001999160698 0.8197521485204585  1.036403256001891 2.079162395000457 0.8959002215715118  1.152782700489807 2.162828467606074 0.7778024123666173  1.025756522583049 2.179615164038179 0.7519940802086447  1.042412123985897 2.043971031668605 0.8311615151039439  1.16065508480747 2.129902294587991 0.7125639040134916  1.030847657808261 2.146382091281804 0.684075051737667  1.048454133057065 2.008857037939448 0.7661934151025284  1.168477217771151 2.096911886319048 0.647271832664253  1.035830129149379 2.113130466154525 0.6161041171757391  1.054479334127521 1.973643008026936 0.7011502207860135  1.176200382103217 2.063715855002128 0.5820546739065544  1.040726927941035 2.07972786083983 0.5481887228616921  1.060456375561315 1.938198880935778 0.6361587839220849  1.184012733772377 2.030107594222272 0.5170587568901794  1.045808576216511 2.045836398042771 0.4805309542179788  1.066463148802034 1.902340803371398 0.5713577981106961  0.9005176110450267 2.203921600864311 0.9040772047794796  0.9035262693953179 2.168635592032861 0.8355235147391571  0.9066950908291056 2.133767734271238 0.766656213351757  0.909863009304154 2.09905252144973 0.6976037710077301  0.9129412144956167 2.064332660657514 0.6284741490892121  0.9159203854384246 2.029484960171035 0.5593707098350608  0.9191150178645318 1.994155523627886 0.490548269284533  1.262145989409082 2.481836366430333 0.8012924212246275  1.350269229197473 2.398555774304535 0.8532066920085496  1.24019339590453 2.350962506314265 0.8608697146349124  1.249284933056099 2.319296428836306 0.7955037785241781  1.360732143080413 2.3669016245181 0.788958181971698  1.270323870760993 2.452929190342265 0.7325469424918823  1.258489249417352 2.287982703276295 0.7299048436050777  1.371294978240275 2.335543495645138 0.7245147409652916  1.278555311596894 2.424352876919867 0.663645756769501  1.267715329823054 2.256795157967408 0.6641691945499993  1.381894605423537 2.304289803712875 0.6599550538867202  1.286770781937854 2.395913695772863 0.5946634619422946  1.27689687325127 2.225572868139079 0.5983981709120263  1.392477372175558 2.272997333375268 0.5953634718347713  1.29491197800598 2.367470056004575 0.5256775594191445  1.285990082887176 2.19418267940049 0.5327020317185492  1.403006887228304 2.241558211180452 0.5308348963156958  1.30301291998326 2.338888645203709 0.4567820510725926  1.295160630181139 2.16241733383854 0.4672121605285741  1.413559741980448 2.209802417293002 0.4664828670641215  1.311255377400222 2.309991144284963 0.3880966415784857  1.537235754372968 1.513682895250969 1.491809817349388  1.5436878936295 1.612652648023666 1.409998787177517  1.658817275468362 1.527962793865104 1.469736227497901  1.543362594876404 1.571403923000437 1.361692297761476  1.031821266009403 1.607119314768782 1.287461451795425  0.9127129103207532 1.676139559074788 1.203453291033653  0.9153295865423352 1.588064586759601 1.303805229715064  0.9101126112069072 1.727534614377724 1.252893593097417  1.028777099371395 1.659542150591836 1.331706767035231  0.9175122685965673 1.532798297334002 1.259837744422735  1.035181294137744 1.554458097091209 1.242927770871042  0.9155136002053691 1.624559720616801 1.153627386311073  0.919725211038026 1.477228945176278 1.215736169598475  1.038589799173103 1.501527697959846 1.198267522030253  0.9183651518725725 1.572695071411591 1.103599004090305  0.9218488422925273 1.421323960135746 1.171571662998972  1.041906207438229 1.448282880898148 1.153544610768347  0.9211864454667661 1.520496802559223 1.053476658326245  0.9238135164701821 1.365049748733252 1.127389183709  1.045052270301818 1.394679951846122 1.108794723659548  0.9239404683301922 1.467910955530799 1.003317438873814  0.9256073144983141 1.308385376868582 1.08322545015455  1.048012289838259 1.340689488419257 1.064014275029671  0.926639261684868 1.414870836834186 0.9531231359262168  1.141436626150316 2.463353867996515 0.7947143840808054  1.147628945241998 2.434070395071005 0.7241612008021515  1.153864156431079 2.405185861340917 0.653450468118852  1.160049422232566 2.376466828923787 0.582670990007038  1.166116190362283 2.347750012734175 0.5118993271825497  1.17216566888954 2.318894841676033 0.4412302152433285  1.178411785353252 2.289674672127709 0.3708102743382352  1.169624578504436 1.56371432971523 1.250350283931954  1.033361708466014 1.483290300428163 1.344756714921517  1.173415737948194 1.513231038756235 1.206024823355139  1.03611068015011 1.428600958491477 1.304302728430658  1.177125741962954 1.462480496440024 1.161634128043996  1.038740440778415 1.373619074131222 1.263795422432382  1.180636387505957 1.411434100549847 1.117205248062915  1.041109491682449 1.318332134552477 1.223252802521433  1.183887383355013 1.360047578208046 1.072759720683142  1.043119132064437 1.262668472720355 1.182691894452265  1.107919446778555 2.345231700583724 0.8471486988734575  1.11411981152856 2.313396400482949 0.7791817098625836  1.120409086679201 2.281979617854807 0.7109756152715827  1.126679674036326 2.250723951355057 0.6426423931003628  1.132833904889073 2.219456214870594 0.5742817927085765  1.138926241972773 2.188034744400068 0.5060006867417811  1.145207521205075 2.156187346045348 0.4379703427151617  1.684156307025003 2.139896606075257 0.581017435584947  1.692327127472479 2.030090884016653 0.6591030711609031  1.806076786053048 2.052435981306804 0.6725181910015384  1.67969354886002 2.063156140986992 0.7161511928713137  1.671998841464128 2.172336970615012 0.6403957730638237  0.7901843441868376 1.807727939643819 1.166601663410335  0.7885063132823793 1.71398120741801 1.260151620253778  0.7896303194974211 1.660039532290009 1.210138334538388  0.7912112789397492 1.757302188298132 1.11133829788434  0.7908893512299655 1.60586345065846 1.159760623576341  0.7923893694253378 1.706811402676113 1.055675624327433  0.7921987606930336 1.551398349592358 1.10919950180357  0.7936401097009672 1.656109337429039 0.999768425875543  0.793504495311284 1.496589738977557 1.058545222389981  0.7949280307858397 1.605108266473562 0.9437427882646481  0.7947685951686924 1.441384364728692 1.007862866462348  0.7962362756441302 1.553731604326935 0.8876851600584361  0.7959834549970464 1.385736075782399 0.9572009197885799  0.7975789560075592 1.501915105059077 0.8316640027618213  1.407910226593648 1.782486465886353 1.250861303862064  1.539856009828791 1.70288162746491 1.328285772056978  1.415052938528706 1.689069603448775 1.336826113237719  1.418340359983212 1.645650319008642 1.289803304024438  1.543357936608524 1.662829496356188 1.278643540504345  1.415239492779985 1.741571946812248 1.20102833193728  1.422043872157226 1.602081839311306 1.242583342543151  1.547264151387558 1.622700465238789 1.228893261353925  1.422997068189701 1.700692441664355 1.15093436933732  1.425920492235825 1.558330091829598 1.195211981199911  1.55133660431089 1.582448850285981 1.179048962461755  1.43091026494091 1.659665738735916 1.100679213907653  1.429779291117218 1.51438104793564 1.147740991141313  0.4057969753182139 2.504226173662519 0.7642662971990629  0.3981351659941509 2.39249710341981 0.8131219109212893  0.2765072819979336 2.397062930875575 0.8140900547890229  0.2755159856238301 2.357011214515496 0.7293756113255503  0.3958914917722223 2.354196046401598 0.7308456043424878  0.4043709637980051 2.469452774269271 0.6786042940644293  0.2746582468246514 2.315875764224877 0.644927486262093  0.3937742829492247 2.315592088013786 0.6487127790023046  0.4030637183165346 2.434496129023496 0.5931442388308386  0.2739231215640874 2.274452720252231 0.5604295651048539  0.3917762728111773 2.276913052710293 0.5666023218903886  0.4018003897900805 2.399534726683513 0.5077895935587047  0.2733049450674562 2.233122863274325 0.4757331652477492  0.3898859535191978 2.238318461167042 0.4843880046378625  0.4005089078185641 2.364713844009741 0.4224174816749042  0.2728136638270634 2.192118552428562 0.3907613543608416  0.3881379907048109 2.199892314795364 0.4020880340553368  0.3993232957901465 2.330097224168015 0.3369861515374815  0.2728874445444194 2.151380060152368 0.3057219985500378  0.3867832212127887 2.161566568318881 0.319802978947779  0.3985115170138381 2.295950824665224 0.2514664749216206  1.420659885511342 1.598545812122989 1.419108560546229  1.421008533992385 1.553967690813495 1.37314574483092  0.4072055987601611 2.092558376405856 0.9686094353262571  0.5355199305231264 2.1753153988381 0.9178660318318337  0.5269780881182463 2.076625732714295 0.9737069193144969  0.5249224477058846 2.034397217013336 0.901865395616273  0.533268859413655 2.135148069837326 0.8436923873090821  0.4051994077164008 2.049705382985011 0.8938038309851931  0.5230533692071125 1.992248887188184 0.8297578636003489  0.5312005426979535 2.095095107663433 0.7693285036285514  0.4033131148340731 2.006708279255165 0.818879369563793  0.5212868602947304 1.950040610189199 0.757474833481057  0.5292227586890047 2.055038576907417 0.6948488368089718  0.4015202927267613 1.963538443539634 0.7437973485113097  0.5196348523656155 1.907708604160147 0.6850632257995315  0.5273463156155457 2.014925014421527 0.6202774189544294  0.3998843862322738 1.920271856580262 0.6685092826470973  0.5180996705165962 1.865180967302026 0.6125605031316051  0.5255647236765923 1.974689253236958 0.5456390444970713  0.3984049008819209 1.876901997769885 0.593056457263041  0.5166740494174702 1.822348777478268 0.5400221521654861  0.5238856547399705 1.934213451832002 0.4709902417621201  0.3971198580580967 1.833391954817812 0.5174381447357508  0.894000350018836 2.317237423487414 0.8455004742818334  0.8971705018888438 2.284282069338842 0.773923263573862  0.9004558346156681 2.2
[...]
<PointData  Vectors="f_16"> 
<DataArray  type="Float64"  Name="f_16"  NumberOfComponents="3" format="ascii">9.6240235395329832e-02 -3.7139780181097083e-03 -1.3401264283763208e-03  9.6390443260470915e-02 -3.4186444527027357e-03 -1.4835700124645472e-03  9.5397312741626925e-02 -4.1469983783259832e-03 -1.5433404613020691e-03  9.5281104219638507e-02 -4.3398255016462847e-03 -1.9053713400288916e-03  9.6201406150643473e-02 -3.6240339168651173e-03 -1.8489878670553152e-03  9.6044243922305025e-02 -3.9427781508737537e-03 -1.7023678741687335e-03  9.5166672856636644e-02 -4.5068147392231719e-03 -2.2350495773447144e-03  9.6045302559413459e-02 -3.7987568591066187e-03 -2.1744453445605521e-03  9.5864131202168065e-02 -4.1383020564699198e-03 -2.0308001542615976e-03  9.5051459421141959e-02 -4.6471551942049603e-03 -2.5410794955046988e-03  9.5892894243136462e-02 -3.9383335099060753e-03 -2.4805396174995900e-03  9.5692076670901377e-02 -4.2974495755423153e-03 -2.3361102208087638e-03  9.4936212934275163e-02 -4.7570617200006684e-03 -2.8280457071836345e-03  9.5743727388263908e-02 -4.0490662228848898e-03 -2.7691033336250869e-03  9.5525736988117393e-02 -4.4254177645086917e-03 -2.6204864280987366e-03  9.4826863288761928e-02 -4.8361584901697174e-03 -3.0972362566539730e-03  9.5599896108564522e-02 -4.1386704413624463e-03 -3.0391625282725483e-03  9.5368866890594275e-02 -4.5309283135888737e-03 -2.8825475883721688e-03  9.4729262003447695e-02 -4.8845332541372580e-03 -3.3453106772995010e-03  9.5459555156393552e-02 -4.2125884778334583e-03 -3.2854446452592954e-03  9.5222412427964614e-02 -4.6183199080034546e-03 -3.1195959440837662e-03  9.7253943607950435e-02 -2.8280348096071653e-03 -1.2484933833716717e-03  9.6989948088763128e-02 -3.0395990890249914e-03 -1.6037297709015107e-03  9.6782907528672066e-02 -3.2259553849869611e-03 -1.9228357463665147e-03  9.6590383589109305e-02 -3.3736778420522823e-03 -2.2283953154029284e-03  9.6408502987340106e-02 -3.4974618260080032e-03 -2.5200139118398204e-03  9.6233596918008438e-02 -3.6081420172924730e-03 -2.7943030052641937e-03  9.6053385624253446e-02 -3.7120335013773797e-03 -3.0459538426008928e-03  9.4380009699971359e-02 -4.1414763532331214e-03 -1.8658931111100378e-03  9.3609738252216190e-02 -4.8447710913527928e-03 -1.6605261058516474e-03  9.4543411486936152e-02 -4.4119211316377355e-03 -1.6786730691316818e-03  9.4496742729577629e-02 -4.5687352270929928e-03 -2.0262009790848567e-03  9.3601372268159455e-02 -4.9717511276911137e-03 -1.9856938202503444e-03  9.4350229429147461e-02 -4.2863965381026107e-03 -2.2118197326134459e-03  9.4437634767853398e-02 -4.7154479732229712e-03 -2.3470503270002592e-03  9.3575162672212733e-02 -5.1023763155922290e-03 -2.2898553380068126e-03  9.4306838359591111e-02 -4.4168082020186860e-03 -2.5295536561956008e-03  9.4370154413431065e-02 -4.8442116596782740e-03 -2.6474654135982328e-03  9.3540194457299136e-02 -5.2295311053325924e-03 -2.5815257334074119e-03  9.4263772560111120e-02 -4.5350615975407928e-03 -2.8269795221754247e-03  9.4299568695623615e-02 -4.9457452943680877e-03 -2.9336006110857950e-03  9.3504134921209181e-02 -5.3366546582264574e-03 -2.8660866349048361e-03  9.4216009586308963e-02 -4.6277806043573746e-03 -3.1132165635207425e-03  9.4234004979338148e-02 -5.0142587821456171e-03 -3.2087685228921027e-03  9.3475065628048151e-02 -5.4103250442095446e-03 -3.1482207545916298e-03  9.4168818907288981e-02 -4.6885946893661145e-03 -3.3911032768195880e-03  9.4181060178755244e-02 -5.0454888599347067e-03 -3.4766362939469908e-03  9.3460958229303975e-02 -5.4404528001508962e-03 -3.4269965367429676e-03  9.4127611066733785e-02 -4.7143893483516160e-03 -3.6662450010894925e-03  9.2617838168996977e-02 -8.7894152382098582e-03 5.9501123473919314e-04  9.2450276235593168e-02 -8.4733078048325021e-03 3.7613546453960095e-04  9.1518171289512951e-02 -9.8669926111681246e-03 5.7103595298390057e-04  9.2024397856422913e-02 -8.5899092490188261e-03 9.9699031986303955e-05  9.5933935373032464e-02 -4.2063711474827625e-03 -4.7588214375406319e-04  9.6753407357390644e-02 -3.3338267085903455e-03 -6.8960494388708375e-04  9.6731166919582473e-02 -3.2671828186397666e-03 -3.7133302678493869e-04  9.7148161910584549e-02 -2.9909731311898130e-03 -4.8447653519189451e-04  9.6356438484205095e-02 -3.8797333406377890e-03 -2.9110931967212201e-04  9.6361537738473779e-02 -3.5671614522199899e-03 -5.5763718648344526e-04  9.5575708744139148e-02 -4.4990694727154341e-03 -6.7908029196750484e-04  9.6413914047222188e-02 -3.6308157464391686e-03 -9.1323881225289616e-04  9.6025727404243602e-02 -3.8464115230120439e-03 -7.6308080400769242e-04  9.5244263106346427e-02 -4.7677485541091531e-03 -8.9516145345721395e-04  9.6107566065048930e-02 -3.8939939416817002e-03 -1.1438019477247299e-03  9.5712278627780797e-02 -4.1194544915099706e-03 -9.7351053200436224e-04  9.4932145755379588e-02 -5.0280602561067270e-03 -1.1119398646805016e-03  9.5822076379270357e-02 -4.1378207712003488e-03 -1.3708155777278303e-03  9.5412720957069222e-02 -4.3967748667758585e-03 -1.1747572412823927e-03  9.4636974422174044e-02 -5.2892736141784205e-03 -1.3129264825099977e-03  9.5549461022213705e-02 -4.3780090851585430e-03 -1.5832396517495798e-03  9.5112929189857934e-02 -4.6902601031076881e-03 -1.3488944160085247e-03  9.4351321347663469e-02 -5.5476878385307292e-03 -1.4800803272145022e-03  9.5279484115335225e-02 -4.6295859074639272e-03 -1.7766840772414890e-03  9.5402038336350095e-02 -3.6154030424796258e-03 -1.8332033729432206e-03  9.5303142541111510e-02 -3.7776139495981926e-03 -2.2040867950581522e-03  9.5219447524022144e-02 -3.9151892578597825e-03 -2.5266223807855659e-03  9.5138281734610225e-02 -4.0297473728810691e-03 -2.8272873155297546e-03  9.5053702644681673e-02 -4.1168157521476343e-03 -3.1144368180542315e-03  9.4967138258233483e-02 -4.1769303117654656e-03 -3.3887455264785494e-03  9.4880621615352503e-02 -4.2095902505732401e-03 -3.6425303104761979e-03  9.4625561323633700e-02 -5.5511942683130885e-03 -6.6146304291467577e-04  9.5610175830602273e-02 -4.3867284586625007e-03 -2.8324006366131556e-04  9.4302025046922311e-02 -5.8019062383501277e-03 -8.8246041975736532e-04  9.5222422767715198e-02 -4.6624230263147453e-03 -4.7788029069244372e-04  9.3994884042743684e-02 -6.0452864899497964e-03 -1.1038102063897440e-03  9.4856180180361793e-02 -4.9409375301651083e-03 -6.8347388954913713e-04  9.3711691039557857e-02 -6.2895851579422343e-03 -1.3118120358523323e-03  9.4514535543143111e-02 -5.2365299342724408e-03 -8.8389223667069135e-04  9.3454884284834727e-02 -6.5374264400737446e-03 -1.4873680486951269e-03  9.4197264147603238e-02 -5.5541738329311823e-03 -1.0615427349036483e-03  9.5658168282573924e-02 -3.7270191876471155e-03 -1.6689746828709123e-03  9.5543047476372364e-02 -3.9072345695445711e-03 -2.0376764907630721e-03  9.5437573292567121e-02 -4.0624455265653309e-03 -2.3633254943070275e-03  9.5330456859477719e-02 -4.1898043025345244e-03 -2.6676934626595093e-03  9.5221968674055427e-02 -4.2877873895063911e-03 -2.9557146661846499e-03  9.5115147635334699e-02 -4.3587322214511115e-03 -3.2276081355984403e-03  9.5011774470146609e-02 -4.4030011809823195e-03 -3.4816146690192147e-03  9.1376979263235444e-02 -6.9876974149944574e-03 -2.7173181597376782e-03  9.1248250489271820e-02 -7.3966679033486355e-03 -2.4454258778824692e-03  9.0225759693074323e-02 -7.9524079161852595e-03 -2.1829097300378199e-03  9.1216136201164505e-02 -7.3282172239004942e-03 -2.1189458452057740e-03  9.1350814635088762e-02 -6.9098251949345716e-03 -2.3885774309918761e-03  9.7916183604591131e-02 -2.2148194664377780e-03 -5.4859273950483029e-04  9.7911141704182317e-02 -2.1052783640134816e-03 -3.4167637381664996e-04  9.7516639412952119e-02 -2.4402621787519264e-03 -5.2033527736866517e-04  9.7531144175395892e-02 -2.5388734026686871e-03 -7.7635608406007408e-04  9.7175349314405718e-02 -2.7340141796265882e-03 -7.3191948918105779e-04  9.7212529173833412e-02 -2.8114427876591761e-03 -1.0218379837073786e-03  9.6870710010388647e-02 -3.0042422849726313e-03 -9.6302962545723886e-04  9.6926902402197312e-02 -3.0529309547788698e-03 -1.2782617869558331e-03  9.6591273723561105e-02 -3.2676557693969393e-03 -1.1971698280315195e-03  9.6665065994403360e-02 -3.2840945015171923e-03 -1.5321288881247339e-03  9.6325022734396387e-02 -3.5367441123645847e-03 -1.4216234360432171e-03  9.6415577535650623e-02 -3.5195209872346239e-03 -1.7718691295381622e-03  9.6059597264026450e-02 -3.8220066618069775e-03 -1.6205944154937606e-03  9.6164385805259142e-02 -3.7712704958879121e-03 -1.9829241960303600e-03  9.3264265907524291e-02 -6.8842025426292695e-03 -3.0496106639615715e-04  9.2302455413472928e-02 -8.1444416117449157e-03 1.1255465287229635e-04  9.3380643997096030e-02 -7.1251928939661544e-03 3.2342142255526963e-06  9.3011478617807078e-02 -7.3093298346486452e-03 -2.8159056872016229e-04  9.1957741881169217e-02 -8.2689904969615504e-03 -2.0114830165382064e-04  9.2983359303992430e-02 -7.0606159249256969e-03 -6.3514011799320317e-04  9.2700424564368583e-02 -7.5003231683072671e-03 -5.4149909410430765e-04  9.1669583988918918e-02 -8.4155750994519204e-03 -4.7182246754879525e-04  9.2743155935917282e-02 -7.2503280962865381e-03 -9.1907497351277612e-04  9.2419393541178785e-02 -7.6900421480575396e-03 -7.8412439546445174e-04  9.1413764122692268e-02 -8.5732383427117326e-03 -7.1989097876275058e-04  9.2536750663525374e-02 -7.4413843943042877e-03 -1.1787824041464285e-03  9.2147595234664287e-02 -7.8762137576260209e-03 -1.0229510170704913e-03  9.9700516525397812e-02 -4.0685942095245429e-04 9.5088048618887733e-05  9.9736356372245080e-02 -3.8400149827384707e-04 1.3744127250153824e-04  9.9918390255775036e-02 -1.2693644588763901e-04 3.0641529450881196e-04  9.9851160692037505e-02 -1.4813464083262176e-04 1.8491276896936452e-04  9.9526765086293864e-02 -4.7665182531433399e-04 -4.9490084369320126e-05  9.9485595972177029e-02 -4.9596128397891390e-04 -1.0896459599263198e-04  9.9809790253457445e-02 -1.8430715076489521e-04 -5.6947411764581645e-06  9.9415885915603866e-02 -5.5902481252029636e-04 -3.0602123981265006e-04  9.9375540363370929e-02 -5.7020638660154686e-04 -3.7632431665518844e-04  9.9777312606852547e-02 -2.2217885072909799e-04 -2.2191836055365563e-04  9.9332797823150173e-02 -6.4738034021076280e-04 -6.0995440376863171e-04  9.9298999621859396e-02 -6.5401885301638509e-04 -6.8731693557320917e-04  9.9729837188604176e-02 -2.6976014699905021e-04 -4.7154426845600814e-04  9.9231536167817339e-02 -7.5048444832208393e-04 -9.4619519553991731e-04  9.9205013086217458e-02 -7.4985365711776437e-04 -1.0273396762992000e-03  9.9639076362911444e-02 -3.5746662622312969e-04 -7.8292986410989174e-04  9.9076598396029461e-02 -8.7981012576447183e-04 -1.3036949979081051e-03  9.9056855361472393e-02 -8.6377857691038366e-04 -1.3851408843789661e-03  9.9338246544866213e-02 -5.6685139079005065e-04 -1.2130536112512314e-03  9.8821586092320141e-02 -1.0361518313703598e-03 -1.6716819428104375e-03  9.8832511887999464e-02 -9.9937773425118684e-04 -1.7516231030027364e-03  9.3481270581963774e-02 -7.3928973214850103e-03 2.9342674308231872e-04  9.3025962095862863e-02 -7.5662369789280121e-03 4.0146527350355690e-05  9.9707344882053531e-02 -3.5725736658226935e-04 2.0418926150818565e-04  9.9334064247365850e-02 -9.0020795489879912e-04 -1.9105160958997921e-04  9.9344643218844203e-02 -8.4345526865724587e-04 -1.2586227745853778e-04  9.9025029133977469e-02 -1.0193334812348292e-03 -3.5790687421976788e-04  9.9006142364056568e-02 -1.0562048165227384e-03 -4.3144802550576679e-04  9.9493651394516450e-02 -4.9611582239126738e-04 1.9910099441749103e-05  9.8810839547294707e-02 -1.1835105384143914e-03 -6.3969631233129086e-04  9.8796980491032402e-02 -1.2026926547676817e-03 -7.1502622719566257e-04  9.9358974730883537e-02 -6.1890807284051394e-04 -2.3940210385676303e-04  9.8634639045539166e-02 -1.3454950500009159e-03 -9.5885124754637742e-04  9.8630114546256031e-02 -1.3463938078361716e-03 -1.0316955675356786e-03  9.9245688318961606e-02 -7.4227985030049016e-04 -5.5277631518440781e-04  9.8461814916591506e-02 -1.5196789692912861e-03 -1.2919774156147500e-03  9.8466692081072407e-02 -1.5001456074745100e-03 -1.3628968876380257e-03  9.9112846113278114e-02 -8.8159935338222176e-04 -9.0307476733569110e-04  9.8261135593228410e-02 -1.7030041648336716e-03 -1.6249510725193370e-03  9.8272370154250263e-02 -1.6576591908207682e-03 -1.6978041061806173e-03  9.8930369589534564e-02 -1.0622961105204638e-03 -1.2643569729682762e-03  9.8015074508278122e-02 -1.8817512341905488e-03 -1.9567870990381043e-03  9.8027807460783808e-02 -1.8196156628123262e-03 -2.0308203850267683e-03  9.8680191123719896e-02 -1.2508252491702928e-03 -1.6352016795961675e-03  9.7309042125109449e-02 -2.6610035449956279e-03 -1.3387526698777556e-03  9.7054016643369809e-02 -2.8482129052139833e-03 -1.6997536291439731e-03  9.6860398018934396e-02 -3.0164429009818432e-03 -2.0197269783749890e-03  9.6683892117616604e-02 -3.1501107284585745e-03 -2.3258635579906438e-03  9.6515255194342231e-02 -3.2595121032843294e-03 -2.6198446786264182e-03  9.6348274715418278e-02 -3.3546713448982788e-03 -2.8986877838147384e-03  9.6175661351212083e-02 -3.4376118908422491e-03 -3.1544718218169264e-03  1.0000000000000001e-01 0.0000000000000000e+00 0.0000000000000000e+00  9.9906520176262337e-02 -1.2600498609904368e-04 3.1713926528774335e-04  9.9895019323564913e-02 -1.2202911020928183e-04 3.3087842054424271e-04  9.9801946530102992e-02 -1.8229925714465133e-04 2.0100549429328654e-04  9.9831526985706756e-02 -1.6274714231333563e-04 1.9236374363520143e-04  1.0000000000000001e-01 0.0000000000000000e+00 0.0000000000000000e+00  9.9742419241631408e-02 -2.4771643526168562e-04 1.1910283864833635e-06  9.9783681686299947e-02 -2.1052300154276700e-04 -3.1369241149284830e-07  1.0000000000000001e-01 0.0000000000000000e+00 0.0000000000000000e+00  9.9689092839971100e-02 -3.0944576719101562e-04 -2.4028669774723896e-04  9.9740947079718534e-02 -2.5859059587428351e-04 -2.2740564330424188e-04  1.0000000000000001e-01 0.0000000000000000e+00 0.0000000000000000e+00  9.9618269684308383e-02 -3.8109008523382347e-04 -5.2493137945395271e-04  9.9683383208155354e-02 -3.1590086813565162e-04 -4.9505362610171644e-04  1.0000000000000001e-01 0.0000000000000000e+00 0.0000000000000000e+00  9.9500455322896933e-02 -4.9161061830181715e-04 -8.7133241479580561e-04  9.9581014070381946e-02 -4.1516247769782851e-04 -8.2455434236580066e-04  1.0000000000000001e-01 0.0000000000000000e+00 0.0000000000000000e+00  9.9249352196597140e-02 -7.1778000939529422e-04 -1.2836465117487248e-03  9.9296304672669505e-02 -6.4239751750904230e-04 -1.2547526788988239e-03  1.0000000000000001e-01 0.0000000000000000e+00 0.0000000000000000e+00  9.8652943874553256e-02 -1.4916824824980656e-03 -3.9514149611737115e-04  9.8660888975324365e-02 -1.3689395812073110e-03 -2.6783215268820579e-04  9.8280698379007186e-02 -1.6619471592847746e-03 -4.6850194921265847e-04  9.8273513933320691e-02 -1.7672378272916409e-03 -6.3226974141231780e-04  9.7980829724555185e-02 -1.9285970612864514e-03 -7.1121295237538246e-04  9.7984599713301992e-02 -2.0065962910214849e-03 -8.9639931790425726e-04  9.7715351881594859e-02 -2.1803992104236316e-03 -9.8154886820644386e-04  9.7731362465446989e-02 -2.2289864601012324e-03 -1.1817287380859961e-03  9.7470251290963178e-02 -2.4334348785139759e-03 -1.2575209491974787e-03  9.7498645702738709e-02 -2.4516317990274264e-03 -1.4706126002942343e-03  9.7232805880010625e-02 -2.6966567199662702e-03 -1.5233939253770589e-03  9.7272239774853872e-02 -2.6855082241176074e-03 -1.7492694649382558e-03  9.6986661650512437e-02 -2.9729351859545295e-03 -1.7736941067838183e-03  9.7033485112834758e-02 -2.9301453643669016e-03 -2.0096792424751137e-03  9.4307401257425844e-02 -4.2030236279044829e-03 -3.2717315164733311e-03  9.3254393108588032e-02 -5.1103459998681515e-03 -3.0291577919044962e-03  9.3241640613185850e-02 -5.1837127278776237e-03 -3.3166994227637123e-03  9.4268187063543465e-02 -4.2577770278539257e-03 -3.5475463339568430e-03  9.3241108371300577e-02 -5.2118559075957803e-03 -3.6020469796300423e-03  9.4232065006358251e-02 -4.2767838015955852e-03 -3.8150936359108469e-03  9.9900622334219799e-02 -1.4210827066107849e-04 2.9887083426655386e-04  9.9826367062160540e-02 -1.6750557648215946e-04 1.5632309742770863e-04  9.9785105895273979e-02 -2.0360196233354229e-04 -5.1954845746992152e-05  9.9753366002341984e-02 -2.4515229568680300e-04 -2.8264124331886607e-04  9.9704201205354309e-02 -2.9385433189035474e-04 -5.4299565558987503e-04  9.9612555952274306e-02 -3.8415760580377947e-04 -8.5734261294605424e-04  9.9324503588664140e-02 -5.6659951670034493e-04 -1.2902820614198007e-03  9.2376271650080888e-02 -5.9008583807697076e-03 -1.2171021405444262e-03  9.1653139038461742e-02 -5.8683854080302487e-03 -1.3072986198483622e-03  9.1428419781687947e-02 -6.4038606386244007e-03 -1.0105651064621825e-03  9.1644176691901530e-02 -5.9279758684098313e-03 -1.5722613676188877e-03  9.2364027416644234e-02 -5.9707751888771711e-03 -1.5146721120518685e-03  9.1402145658736486e-02 -6.4453495728450209e-03 -1.2759204226345930e-03  9.1635699417247043e-02 -6.0366127679719900e-03 -1.8421406624480080e-03  9.2345549696686263e-02 -6.0893497014028880e-03 -1.8017025066214751e-03  9.1377625211947255e-02 -6.5413072160354054e-03 -1.5428642722655505e-03  9.1621267819619767e-02 -6.1620488009830349e-03 -2.1169298222044556e-03  9.2321302256130416e-02 -6.2172995166170555e-03 -2.0827378503698976e-03  9.1356741150487572e-02 -6.6651883468929274e-03 -1.8141283503788892e-03  9.1616747156383641e-02 -6.2931002373396456e-03 -2.3966638371097815e-03  9.2299981379510732e-02 -6.3357178380484070e-03 -2.3618319456241731e-03  9.1345867932207475e-02 -6.7962922522877322e-03 -2.0921270894548767e-03  9.1623524251576799e-02 -6.4065288334700394e-03 -2.6929202907731596e-03  9.2293649600279651e-02 -6.4263101644875080e-03 -2.6488050196769673e-03  9.1647547400612317e-02 -6.4844931849933583e-03 -3.0230084598809170e-03  9.2316338405405998e-02 -6.4686261950260143e-03 -2.9565768110888383e-03  9.3379338307949478e-02 -5.3218081272583722e-03 -1.4242080592005040e-03  9.2316404630826035e-02 -6.3034039376071681e-03 -9.8646670534597940e-04  9.3326814124302923e-02 -5.6803512080937611e-03 -1.2162952938571771e-03  9.3285986317932862e-02 -5.7859521728165731e-03 -1.5579802533184515e-03  9.2284315515456003e-02 -6.3630488409274670e-03 -1.2975986349116175e-03  9.3364498033007809e-02 -5.4308898566825248e-03 -1.7554871164952247e-03  9.3236527422696697e-02 -5.9255687022560025e-03 -1.8678817576591824e-03  9.2244620210784431e-02 -6.4753099311025937e-03 -1.5872808223631031e-03  9.3333963308250667e-02 -5.5646767946344834e-03 -2.0619735247438676e-03  9.3180090000606189e-02 -6.0668525694286719e-03 -2.1577736893158184e-03  9.2205672530495567e-02 -6.6075689237057702e-03 -1.8666910558436261e-03  9.3292194326095354e-02 -5.6942141248298413e-03 -2.3526022514517276e-03  9.3128249968598587e-02 -6.1880541038479998e-03 -2.4342964507493999e-03  9.2177509374644334e-02 -6.7328586322103687e-03 -2.1418277955054491e-03  9.3250773557240124e-02 -5.8054282971254402e-03 -2.6341919543290248e-03  9.3092001249058268e-02 -6.2699643434696124e-03 -2.7056215260098404e-03  9.2168340380915578e-02 -6.8246794952650305e-03 -2.4226258832032452e-03  9.3221051845046796e-02 -5.8805221632147022e-03 -2.9132000232955806e-03  9.3088270771345655e-02 -6.2955296613240695e-03 -2.9788849665670107e-03  9.2194799596095389e-02 -6.8604059593646034e-03 -2.7214892006664319e-03  9.3218317170792320e-02 -5.9036482368960983e-03 -3.1950289135525846e-03  9.7310657942022843e-02 -2.5005536034173534e-03 -1.4091708282699216e-03  9.7353485143407220e-02 -2.2943249021412696e-03 -1.4605207603487276e-03  9.6417038240802000e-02 -3.0585497608191579e-03 -1.6665068358926766e-03  9.6234386180209436e-02 -3.2169204077929130e-03 -2.0371148630440573e-03  9.7101815064849814e-02 -2.4317693450063784e-03 -1.8258181049114340e-03  9.7063008854948896e-02 -2.6629065164713410e-03 -1.7746320422211670e-03  9.6107525600439031e-02 -3.3592649931271333e-03 -2.3618619433352674e-03  9.6928276927787438e-02 -2.5595792754870813e-03 -2.1517635148947645e-03  9.6881168299010681e-02 -2.8136650458820290e-03 -2.09838