<?xml version="1.0"?>
<VTKFile type="UnstructuredGrid"  version="0.1"  >
<UnstructuredGrid>
<Piece  NumberOfPoints="973" NumberOfCells="4091">
<Points>
<DataArray  type="Float64"  NumberOfComponents="3"  format="ascii">1.168031883077998 1.565794378947948 1.461504770759602  1.272581444076399 1.521625932910584 1.510496282104881  1.171617514535125 1.479624859145885 1.566984213007006  1.169123676584748 1.427272208622997 1.528277108932676  1.270797890057483 1.471828506583195 1.469692668167073  1.167170168863462 1.51462419374292 1.420781043438865  1.167082524639161 1.374673229576896 1.489538612446404  1.269428980460013 1.421745095141326 1.428844520986864  1.166694438322433 1.463191654151283 1.379931760414859  1.165180031193294 1.321868035618547 1.450799520895255  1.268216226891822 1.371436498252238 1.387952730591155  1.166349611642288 1.411502715295474 1.338992567987036  1.163173653602846 1.268901793936658 1.412060503635295  1.266952965935529 1.320958864101668 1.34702506124377  1.165921021159405 1.359570898338491 1.298005891591861  1.160833961865265 1.215840791546152 1.373286860359055  1.265442445970548 1.270372693162983 1.306025657999242  1.165232185644893 1.307401691869827 1.25695850810402  1.157882278371628 1.162736749529886 1.334389198793342  1.263434995290146 1.219735329014493 1.264853851041764  1.164110897417296 1.254972299054182 1.215751152135518  0.90886118326683 1.568194029775064 1.451838172839612  1.028418194306059 1.591826850599213 1.42525398245944  1.029571910832461 1.502513684375585 1.545810206785947  1.028770787919751 1.447934888157908 1.507613463108309  1.030684118322486 1.537688143127911 1.38510164501021  0.9108675150194077 1.5120793861319 1.411568532426912  1.028440820141858 1.393100141312324 1.469305668055986  1.033361708466014 1.483290300428163 1.344756714921517  0.9132588531166863 1.455695968482952 1.371088384614982  1.028195795252194 1.338019048012366 1.430970071922264  1.03611068015011 1.428600958491477 1.304302728430658  0.9156843409289125 1.39899110231402 1.330518724455424  1.02778679140666 1.282706193091746 1.392637236196107  1.038740440778415 1.373619074131222 1.263795422432382  0.9179588272903071 1.341958562062866 1.289911967044037  1.027001780010056 1.227179677270221 1.354297325026629  1.041109491682449 1.318332134552477 1.223252802521433  0.9199423984513926 1.284564433060815 1.249284657804295  1.025653473038957 1.171448065902729 1.315900497246646  1.043119132064437 1.262668472720355 1.182691894452265  0.9215308745458362 1.226731924955578 1.208607150049943  1.61909314852576 1.435515961839519 1.555706773152887  1.658817275468362 1.527962793865104 1.469736227497901  1.757723213686891 1.428720073759284 1.530187274580987  1.746550144566283 1.387792208415137 1.479541508619159  1.653837620587346 1.487934359018609 1.419348649526156  1.610309434283778 1.39112834095568 1.508895767031083  1.73540958826739 1.346628006807065 1.429073906846858  1.649094995397051 1.447672878737614 1.369043424639414  1.60166903747482 1.346459834049687 1.462254971353468  1.724337477799191 1.305359373994737 1.378680071166599  1.644475468624703 1.407272805945968 1.318743207522587  1.593142719739779 1.301645929490841 1.415668105951223  1.713310556867832 1.264098431675236 1.328293848853412  1.162608287760912 1.664055138173127 1.338509909433131  1.293560309399381 1.591476590608855 1.424148674554688  1.293945817379612 1.542888961045387 1.381225512279102  1.165933759925364 1.613951765150827 1.29454913035168  1.294725606207837 1.494072837740243 1.338226735550218  1.169624578504436 1.56371432971523 1.250350283931954  1.295654783451753 1.445053455398269 1.295162421260308  1.173415737948194 1.513231038756235 1.206024823355139  1.296525868479381 1.395845674193447 1.252046154838067  1.177125741962954 1.462480496440024 1.161634128043996  1.297168665331297 1.346479500952777 1.208862448947158  1.180636387505957 1.411434100549847 1.117205248062915  1.297376147816357 1.296978486146341 1.165553287966082  1.183887383355013 1.360047578208046 1.072759720683142  1.537235754372968 1.513682895250969 1.491809817349388  1.532369009020873 1.469600775681609 1.445261825972738  1.527776705542276 1.425265519429831 1.398820951423184  1.523329490822096 1.380784074900491 1.352388739345749  1.543362594876404 1.571403923000437 1.361692297761476  0.9101126112069072 1.727534614377724 1.252893593097417  1.028777099371395 1.659542150591836 1.331706767035231  0.9134127280867991 1.643051533591803 1.347515190781951  0.9153295865423352 1.588064586759601 1.303805229715064  0.9015076258280418 1.497575657497388 1.554606768103657  0.9020982335287164 1.439702970466835 1.518133692012502  0.9031655981824587 1.38155024982139 1.481545575649707  0.9042498450019099 1.32312066780249 1.44491981217277  0.9051211429026134 1.264424895439558 1.408286144538788  0.9055851287512877 1.205451226902444 1.371647530774134  0.9054289587320701 1.146149912356309 1.33499031919626  0.924044040878388 1.432128595369544 1.664186914570495  0.9223691268400848 1.374223495610336 1.629942438904301  0.9213218703484809 1.316077219994551 1.59560547689723  0.9203512317810431 1.257687348638479 1.561259236264491  0.919145708729486 1.199100053630129 1.5269334752622  0.9174196079821428 1.140349876233861 1.492615184902386  0.9148237566106255 1.081405706113339 1.458284421920046  1.031821266009403 1.607119314768782 1.287461451795425  1.035181294137744 1.554458097091209 1.242927770871042  1.296094566915521 1.458548843669839 1.585354143975234  1.291332210389893 1.408601948471194 1.545131851894811  1.286968472301761 1.358392962788149 1.504972543988854  1.282785334477385 1.307993456401885 1.464830247866531  1.278569425724543 1.257480053804823 1.42468612633423  1.274119241337772 1.206960687584886 1.384499096721351  1.269172058476056 1.156596322376186 1.344179914168273  1.867868471617981 1.207600735843766 1.415789635441239  1.865957499392706 1.091954278916707 1.496912870522194  1.985372743852028 1.089098726779175 1.454421222261983  1.884472319392856 1.135907135649005 1.547374144588632  1.967151470534646 1.046937429600342 1.401592450060663  1.852584310298514 1.168168415112358 1.362921543609407  1.847505681555226 1.048050700554762 1.446448273854131  1.949048931640408 1.004910714075175 1.348672874949825  1.837390238302152 1.128866350186436 1.309959740787252  1.829185653116009 1.004286558114677 1.395892102182754  1.931133326859386 0.9631030920057485 1.295589302111726  1.822385023320044 1.089851588809597 1.256807016945994  1.81108239032338 0.9607788109065275 1.345154312354856  1.422763725597528 1.376170577293208 1.663042986422518  1.543272208720203 1.36704919991794 1.637620508399492  1.434931366854542 1.302970045969892 1.745381389455912  1.420986308410769 1.253154636438723 1.705124589501164  1.531675695023968 1.320198830781027 1.593397700071757  1.412939850458073 1.327129245427569 1.622119824228047  1.407200877256098 1.203202580968522 1.665114983027018  1.52022225307812 1.273140646552042 1.549405976798603  1.403317536712467 1.277853480902432 1.581389054861863  1.393585437019123 1.153153819414078 1.625232985265903  1.508903940834919 1.225964998158465 1.50552418691433  1.393861979328179 1.228427761171905 1.540732449106777  1.380049754468823 1.103084628642018 1.585420155845295  1.497652741030446 1.178777364726491 1.46168124561297  1.384453440576924 1.17895152400284 1.500105661619399  1.366473034978981 1.053150295081219 1.545588598148961  1.486399911630081 1.131730993983069 1.41781915020205  1.374981410856101 1.129563345666392 1.459469092704311  1.352833610414303 1.003627982041596 1.505608870916955  1.475103091254164 1.085087120569465 1.373808608736612  1.365307166677469 1.080525421741205 1.418732224257178  1.404163762548326 1.433320156677658 1.595396147511919  1.302907561157424 1.392769982787602 1.667949777930924  1.294640151739925 1.341841103810213 1.629276540950695  1.397176783607824 1.384859686431778 1.553581993548404  1.286739056133124 1.290695378764217 1.590730320524042  1.390501704017007 1.336150718917473 1.511924946262435  1.279040044664671 1.239386191221824 1.552232586721428  1.383998997386229 1.287282280815018 1.47030974835498  1.271336995399238 1.187999246267931 1.513763760477276  1.377503986747957 1.238339150665135 1.428690343300216  1.263427829208467 1.136685631438564 1.47528573808123  1.370851453297736 1.189459274737495 1.387022949888797  1.255070424456225 1.085658415632842 1.436720687075635  1.363853077890681 1.140885170126844 1.345240374431881  1.049857530634502 1.360734617874959 1.764349288693289  1.179456977925526 1.345289905166471 1.762518997882882  1.048261302384411 1.301049746987225 1.87201491119409  1.038947340557797 1.243846491428068 1.840502919251571  1.170376945332606 1.291754165014621 1.726684595456233  1.044620471119482 1.304405678280621 1.730718214465909  1.030368396439963 1.186529880147477 1.808903821053878  1.161803283591741 1.238065268357132 1.690906473097859  1.040034861571011 1.247891016188131 1.697034611863044  1.021961922465519 1.129069940335775 1.777354684039161  1.153445145081117 1.184233940805525 1.655187970110876  1.035592965489522 1.191189707074955 1.663408003521838  1.013382292292634 1.071542307194122 1.74589262430739  1.145038402852343 1.130333053052695 1.619550004802031  1.030993271455572 1.134389532009552 1.629857215302773  1.004334639669269 1.014081677591931 1.714506452364191  1.136311518790914 1.076518169155192 1.583954644435481  1.025947301569501 1.077627720887769 1.596347680954876  0.9943963980950782 0.9569788493338446 1.683130370703414  1.1269288146429 1.023048677916252 1.548296927430308  1.019971002359847 1.021078422409748 1.562787808744982  1.39940813320391 1.510022351161631 1.518170702404261  1.395214318467711 1.462895090835958 1.475388373539703  1.391332367926431 1.415466371952371 1.432659856995673  1.38763294245312 1.367817866944549 1.389894094415081  1.383937960866722 1.320030876160462 1.347081437730384  1.380074850153273 1.272192522906991 1.304180102583114  1.37582893613981 1.224436752166541 1.261092887080414  1.421008533992385 1.553967690813495 1.37314574483092  1.421769
[...]
<PointData  Vectors="f_16"> 
<DataArray  type="Float64"  Name="f_16"  NumberOfComponents="3" format="ascii">9.5572751331397254e-02 -5.0342137428279433e-03 2.1290695715611439e-04  9.4859596451529471e-02 -6.1152940178697242e-03 4.7989722568795971e-04  9.5675008457504984e-02 -5.1704119508035485e-03 5.9214906324360451e-04  9.5125219227757365e-02 -5.3631486202123189e-03 4.6996417984074377e-04  9.4330470996565954e-02 -6.3129891446629923e-03 3.2278339356636525e-04  9.5084692976856580e-02 -5.2828819065493535e-03 6.6164200975765380e-05  9.4617529733272518e-02 -5.5646354879001630e-03 3.0996668326948028e-04  9.3855355006400742e-02 -6.5113290967683179e-03 1.4372583772620862e-04  9.4660184132491346e-02 -5.5176833166109022e-03 -1.1098319410221873e-04  9.4122676695558849e-02 -5.7746538763216839e-03 1.1762605541414012e-04  9.3392493966243079e-02 -6.7078702248587318e-03 -5.7116812258522046e-05  9.4255606152097451e-02 -5.7441263244444067e-03 -3.1205498839709565e-04  9.3641642271703962e-02 -6.0056483005891071e-03 -9.4559010209312007e-05  9.2938503873400927e-02 -6.9165517493103758e-03 -2.7075757638316304e-04  9.3868040811188158e-02 -5.9766770274633880e-03 -5.2306400480315338e-04  9.3178860653344034e-02 -6.2738503218761899e-03 -3.1612596017404081e-04  9.2494962312510601e-02 -7.1522464689875876e-03 -4.9062501179587847e-04  9.3500672777147908e-02 -6.2319874676193812e-03 -7.3005551095829289e-04  9.2751487648151817e-02 -6.5908134495031179e-03 -5.2632846032441786e-04  9.2084399505004869e-02 -7.4341500992947812e-03 -7.0382554579548719e-04  9.3157995343405742e-02 -6.5426512849768841e-03 -9.2236263154184684e-04  9.7258432721918572e-02 -2.7790708288279353e-03 8.1651589754013293e-05  9.6482647099362093e-02 -3.7949462205831047e-03 2.2795665896637592e-05  9.6611229344430047e-02 -3.7678572906675051e-03 4.1084008619363837e-04  9.6104112574568634e-02 -4.0084405061610404e-03 3.0885537084157161e-04  9.6021088765580520e-02 -4.0985611674845034e-03 -1.1441913253312211e-04  9.6809415804638754e-02 -3.0918460329531468e-03 -2.9648867888147154e-05  9.5637715175372548e-02 -4.2545120645072479e-03 1.6112317953209532e-04  9.5610175830602273e-02 -4.3867284586625007e-03 -2.8324006366131556e-04  9.6399639768051409e-02 -3.3898574477404905e-03 -1.8691023743880726e-04  9.5190073323568700e-02 -4.5080464097009970e-03 -2.4687428530503613e-05  9.5222422767715198e-02 -4.6624230263147453e-03 -4.7788029069244372e-04  9.6017469761345869e-02 -3.6817829218354558e-03 -3.7650688699735700e-04  9.4765696211790720e-02 -4.7809233197507574e-03 -2.3101426352818596e-04  9.4856180180361793e-02 -4.9409375301651083e-03 -6.8347388954913713e-04  9.5663400797526554e-02 -3.9810034280093427e-03 -5.8071109563331239e-04  9.4371415533943195e-02 -5.0866610706838218e-03 -4.4223017210846577e-04  9.4514535543143111e-02 -5.2365299342724408e-03 -8.8389223667069135e-04  9.5340313366356552e-02 -4.2971267949750598e-03 -7.7998570699281853e-04  9.4020325985296124e-02 -5.4411921023769681e-03 -6.4174669939769807e-04  9.4197264147603238e-02 -5.5541738329311823e-03 -1.0615427349036483e-03  9.5026855951184500e-02 -4.6271346655727833e-03 -9.7092647119237764e-04  9.1982968705489734e-02 -9.9814032531235566e-03 7.7067526931036358e-04  9.1518171289512951e-02 -9.8669926111681246e-03 5.7103595298390057e-04  9.0623690768939030e-02 -1.1301057505405807e-02 6.3461206287854666e-04  9.0081863370486501e-02 -1.1287259377107244e-02 4.3539599864411867e-04  9.1039008664630397e-02 -9.9205229114007615e-03 3.2434785362438635e-04  9.1410722315990359e-02 -1.0013266342895396e-02 5.7403828266965333e-04  8.9582889042835526e-02 -1.1287418779324166e-02 2.3402006899079727e-04  9.0619412823488593e-02 -9.9967528523957419e-03 9.7591614805327722e-05  9.0872098780726676e-02 -1.0058963014738017e-02 3.7274547824453920e-04  8.9099602390089877e-02 -1.1300657974469688e-02 2.8696675559519476e-05  9.0208881875078084e-02 -1.0083389775037884e-02 -1.2888102081242236e-04  9.0345333281558610e-02 -1.0116411736313226e-02 1.6662971404532445e-04  8.8613133807878677e-02 -1.1324876245330759e-02 -1.7715374722643696e-04  9.5388599964330398e-02 -4.9880474500146261e-03 -2.2540717628811714e-04  9.4521674645250853e-02 -6.2115850418420658e-03 1.9038177730194210e-04  9.4050117107620290e-02 -6.4400004398967002e-03 -1.8345390918733790e-05  9.4973104344238640e-02 -5.2833789781021653e-03 -4.4405051754360723e-04  9.3651392261367497e-02 -6.6569471510722822e-03 -2.2410080212768263e-04  9.4625561323633700e-02 -5.5511942683130885e-03 -6.6146304291467577e-04  9.3265264420749394e-02 -6.8666938956322091e-03 -4.3989803855424040e-04  9.4302025046922311e-02 -5.8019062383501277e-03 -8.8246041975736532e-04  9.2889415999465041e-02 -7.0810518990268856e-03 -6.6149419445611288e-04  9.3994884042743684e-02 -6.0452864899497964e-03 -1.1038102063897440e-03  9.2530289398139259e-02 -7.3144163313271261e-03 -8.7833013821543300e-04  9.3711691039557857e-02 -6.2895851579422343e-03 -1.3118120358523323e-03  9.2205216559817685e-02 -7.5744178590992873e-03 -1.0674939608115407e-03  9.3454884284834727e-02 -6.5374264400737446e-03 -1.4873680486951269e-03  9.2617838168996977e-02 -8.7894152382098582e-03 5.9501123473919314e-04  9.2106998427676529e-02 -8.8887596234962611e-03 3.7043317626287396e-04  9.1656797056979308e-02 -8.9968444029994484e-03 1.5967789238263569e-04  9.1208562298984358e-02 -9.1091214022890176e-03 -5.7926034199927166e-05  9.2024397856422913e-02 -8.5899092490188261e-03 9.9699031986303955e-05  9.7148161910584549e-02 -2.9909731311898130e-03 -4.8447653519189451e-04  9.6356438484205095e-02 -3.8797333406377890e-03 -2.9110931967212201e-04  9.7155685212395607e-02 -2.9322419294635230e-03 -2.1972969946311890e-04  9.6731166919582473e-02 -3.2671828186397666e-03 -3.7133302678493869e-04  9.7386648132691531e-02 -2.6351023266332962e-03 3.6956005806954652e-04  9.6908318048996134e-02 -2.9051156546788630e-03 2.8717193223653652e-04  9.6460940337793677e-02 -3.1765645302167978e-03 1.4798724130677949e-04  9.6037486081366863e-02 -3.4595866337806410e-03 -3.1281897151009855e-05  9.5642066801159678e-02 -3.7665295118090216e-03 -2.3451864395400123e-04  9.5281976237549693e-02 -4.1102986881135775e-03 -4.4576022490573598e-04  9.4954872644579288e-02 -4.4897539467693070e-03 -6.4110113828658123e-04  9.7394249960829529e-02 -2.7769128946584839e-03 6.6214491718507120e-04  9.6871265410472029e-02 -2.9847148979467724e-03 5.9250306195689705e-04  9.6368993514918788e-02 -3.2163719188030263e-03 4.6020720091497608e-04  9.5887576791314780e-02 -3.4723997562784341e-03 2.8252949073764459e-04  9.5432716306809065e-02 -3.7625243233504820e-03 7.4460913320430192e-05  9.5014847904419830e-02 -4.1005734941792606e-03 -1.5008782193835009e-04  9.4656592797641798e-02 -4.5145303673071848e-03 -3.7875186297059519e-04  9.5933935373032464e-02 -4.2063711474827625e-03 -4.7588214375406319e-04  9.5575708744139148e-02 -4.4990694727154341e-03 -6.7908029196750484e-04  9.4805296344454462e-02 -6.5141015987183930e-03 7.5492556690903289e-04  9.4220271456100360e-02 -6.6512420870144737e-03 6.1179391110690521e-04  9.3684983939851807e-02 -6.8013391022448679e-03 4.4125262147951276e-04  9.3158607208913044e-02 -6.9598238438588998e-03 2.4495808367169125e-04  9.2638746106867204e-02 -7.1373168868599695e-03 3.2474185965667190e-05  9.2122715857987147e-02 -7.3476531675868888e-03 -1.9066099278573054e-04  9.1613355775439456e-02 -7.6127645337926561e-03 -4.2705520724626753e-04  8.7315489029676591e-02 -1.3084386955551220e-02 1.2977131399190459e-05  8.6675843209265385e-02 -1.3727157013965718e-02 1.6720205146612910e-04  8.5558355614512943e-02 -1.4674710583731272e-02 -2.0338314813431624e-05  8.7247008482097488e-02 -1.3829204216384150e-02 3.4611406648489226e-04  8.5053307373250231e-02 -1.4578800707253968e-02 -1.7638872821411908e-04  8.6812310986478416e-02 -1.3030068566529985e-02 -1.6661363105604734e-04  8.6105436619026060e-02 -1.3629088255290895e-02 -6.0248615891761411e-07  8.4530795254264934e-02 -1.4477944990517796e-02 -3.1023303732030828e-04  8.6288477065152774e-02 -1.2976045914240987e-02 -3.3449547969519207e-04  8.5511644901300046e-02 -1.3528518479947146e-02 -1.5115587596314223e-04  8.3974273579260697e-02 -1.4364500240070709e-02 -4.1537429635189456e-04  8.5717219432235897e-02 -1.2921988068942467e-02 -4.8880001466714115e-04  8.4874324425461140e-02 -1.3417782538145427e-02 -2.7479700553491705e-04  9.3873652608541830e-02 -8.2573341320680473e-03 1.0389100147089653e-03  9.2707003139233718e-02 -9.6048637392694720e-03 9.7281446521284667e-04  9.3746974226467591e-02 -8.8439745183882881e-03 1.2328986687042268e-03  9.3005520133111821e-02 -8.7765075837056422e-03 1.0846762785679906e-03  9.2052836327426321e-02 -9.5992491280510357e-03 8.0630046862880268e-04  9.3205268119696441e-02 -8.2833348457776578e-03 8.9366409036167199e-04  9.2314842107975012e-02 -8.7445756529692560e-03 9.0646377124963180e-04  9.1438086411939581e-02 -9.6070059971916019e-03 6.2140420045544032e-04  9.2578117914997926e-02 -8.3282442567397148e-03 7.1923058596983489e-04  9.1645926163613722e-02 -8.7418288751081891e-03 7.0846739768032753e-04  9.0839383553250524e-02 -9.6341000327522571e-03 4.2349137719600193e-04  9.1968194537419098e-02 -8.3936706135293426e-03 5.2511842606266191e-04  9.0973908188839561e-02 -8.7646048606137179e-03 4.9379704302378151e-04  9.0235923239441768e-02 -9.6809244587642927e-03 2.1649956808789686e-04  9.1356443542899790e-02 -8.4809191317477758e-03 3.1638441099564698e-04  9.0270193857444656e-02 -8.8118776609119303e-03 2.5892966161919923e-04  8.9603349077928288e-02 -9.7479104888377709e-03 7.0760393982347665e-07  9.0720242209329463e-02 -8.5953865261738319e-03 9.3795707388987453e-05  8.9479063674857126e-02 -8.8882072996639538e-03 -2.9468444583672235e-06  8.8911417617575747e-02 -9.8322920698583945e-03 -2.2085758612577525e-04  9.0030374540376573e-02 -8.7552328136460238e-03 -1.5726736167895832e-04  9.3922403608621127e-02 -7.7642540046746929e-03 8.4333656249632012e-04  9.4871122683797535e-02 -6.8325227994626772e-03 1.0008659341371865e-03  9.4230613800396532e-02 -6.8973174048624786e-03 8.7623821266423799e-04  9.3323259476480208e-02 -7.8544245325631364e-03 6.8865822221808300e-04  9.3622535758992348e-02 -6.9850735616001020e-03 7.1199887393913952e-04  9.2761542393630367e-02 -7.9553455673177925e-03 5.0909441862478173e-04  9.3031150675745924e-02 -7.0936701049501335e-03 5.1956189032480193e-04  9.2211314486960877e-02 -8.0680881279784518e-03 3.0983378877170992e-04  9.2443847048168201e-02 -7.2284109289367949e-03 3.0660698258400121e-04  9.1661085190443747e-02 -8.1993300992049475e-03 9.8248101566470293e-05  9.1847707099234233e-02 -7.4005587582113104e-03 7.4082294856086324e-05  9.1097887744778935e-02 -8.3607759223731839e-03 -1.2474604038368597e-04  9.1231000986769131e-02 -7.6307145377465030e-03 -1.8183691448188388e-04  9.0507299011379591e-02 -8.5686511431813349e-03 -3.6501264671653938e-04  9.6765722090760856e-02 -4.1298486374186354e-03 1.0424971214873485e-03  9.5909249107921757e-02 -5.6342261519256717e-03 1.1605548944342869e-03  9.6915043416079635e-02 -4.3396590877812814e-03 1.2563420995393680e-03  9.6207955993816027e-02 -4.3659599568048333e-03 1.1400570011997036e-03  9.5231129725175945e-02 -5.6757861347904543e-03 1.0472217138066755e-03  9.6133666393662387e-02 -4.2414350483582436e-03 9.4430288922423781e-04  9.5532201060234495e-02 -4.4504028409353110e-03 9.7739860655408342e-04  9.4585317819176298e-02 -5.7544098605602145e-03 8.8734233333265266e-04  9.5520567515483532e-02 -4.3931138848828559e-03 7.9507393966633875e-04  9.4878571936813358e-02 -4.5821809364247467e-03 7.7554285696611390e-04  9.3959212980552376e-02 -5.8667349081620397e-03 6.9264876431608473e-04  9.4922953121945805e-02 -4.5803229324635963e-03 6.0534856238518694e-04  9.4239740778484682e-02 -4.7603491009725173e-03 5.3650265320025138e-04  9.3342512916372272e-02 -6.0164047077692802e-03 4.6851696453035872e-04  9.4339195936840162e-02 -4.8084874683664899e-03 3.8189268885114940e-04  9.3610933882433800e-02 -4.9946328002924466e-03 2.5326238471385856e-04  9.2727250521369167e-02 -6.2145603762817471e-03 2.1368099545597300e-04  9.3768849250997738e-02 -5.0930903719982289e-03 1.2810338333995805e-04  9.2969428707703042e-02 -5.3434066116025509e-03 -8.2409859245183119e-05  9.2089086398935385e-02 -6.4852608576259378e-03 -7.6508020471334798e-05  9.3241430934930675e-02 -5.4535295283510976e-03 -1.5710892366719870e-04  9.3901011997517020e-02 -7.4236935048726631e-03 6.0087112698234814e-04  9.3356551057480280e-02 -7.5674841428886794e-03 4.2624558383937556e-04  9.2876847074616534e-02 -7.7129082591638606e-03 2.3278405789462460e-04  9.2409476109284530e-02 -7.8587425130275095e-03 2.5789287082695256e-05  9.1945419590465177e-02 -8.0147532796473707e-03 -1.8897681466352359e-04  9.1479790037020142e-02 -8.1939587714222675e-03 -4.0739530966590084e-04  9.1004194351866616e-02 -8.4204581175718659e-03 -6.3268097904266459e-04  9.3025962095862863e-02 -7.5662369789280121e-03 4.0146527350355690e-05  9.2640527385846216e-02 -7.7466249548293108e-03 -1.8436540282099669e-04  9.0572799864516357e-02 -1.2929778502189539e-02 1.4167712697797025e-03  9.1043504366495082e-02 -1.2215346352761005e-02 1.2316202009419990e-03  8.9165945378963399e-02 -1.4164711009758689e-02 1.3024783777425440e-03  8.8357807622285484e-02 -1.3946924251683507e-02 1.0735022718284064e-03  9.0237608982819198e-02 -1.2031995896101058e-02 1.0397010815715398e-03  8.9716073622463366e-02 -1.2699210938982252e-02 1.1819896634544863e-03  8.7597378155817820e-02 -1.3763973145594013e-02 8.5286655069448456e-04  8.9492838020054935e-02 -1.1887100367413920e-02 8.4161712837875870e-04  8.8919470296014186e-02 -1.2511252846764895e-02 9.5907434677764943e-04  8.6861447125040708e-02 -1.3596406972896165e-02 6.4214288766723080e-04  8.8771638962199723e-02 -1.1767176144375051e-02 6.3979983949621921e-04  8.8147908949138765e-02 -1.2345637802222850e-02 7.4029348343277021e-04  8.6127677046899581e-02 -1.3429545427892247e-02 4.3936231169953261e-04  8.8045043369242862e-02 -1.1658925150586953e-02 4.3506959870848758e-04  8.7372863881613499e-02 -1.2184620812897869e-02 5.2303752783264051e-04  8.5380443036254375e-02 -1.3252577526953566e-02 2.4243125719520099e-04  8.7283789577624546e-02 -1.1548158844634348e-02 2.3021727153657063e-04  8.6587538030616668e-02 -1.2015694988340334e-02 3.0172552141977349e-04  8.4613630191939113e-02 -1.3055323758090554e-02 3.8666233070554595e-05  8.6481976022358312e-02 -1.1413423685931606e-02 2.0664853944622002e-05  8.5776932437875736e-02 -1.1818820277998762e-02 6.7058498912706308e-05  9.7911141704182317e-02 -2.1052783640134816e-03 -3.4167637381664996e-04  9.7516639412952119e-02 -2.4402621787519264e-03 -5.2033527736866517e-04  9.7639401802088105e-02 -2.8488873975036047e-03 1.0767967808494312e-03  9.7761350638318145e-02 -3.1221491903391965e-03 1.2439365928657337e-03  9.7045596069208914e-02 -3.1517703782065042e-03 1.1217534813923434e-03  9.7006368270211890e-02 -2.9585516330475226e-03 9.8097613243336131e-04  9.6358735108165838e-02 -3.2551118740154071e-03 9.5311741992989204e-04  9.6388745280209895e-02 -3.1226818476205527e-03 8.3045076841366835e-04  9.5696623962674685e-02 -3.4195228991637404e-03 7.4213848842236466e-04  9.5788898386517343e-02 -3.3375153166016560e-03 6.3414887929992797e-04  9.5053793879456450e-02 -3.6447969376794437e-03 4.8761049248856894e-04  9.5208377718410425e-02 -3.6089712755432444e-03 3.9759622960282385e-04  9.4416029433973730e-02 -3.9509325729146106e-03 1.8659064621565823e-04  9.4654720721857571e-02 -3.9513856105633681e-03 1.2292208704894390e-04  9.3802374966705820e-02 -4.3742930952769985e-03 -1.5909528155027148e-04  9.4157948876720007e-02 -4.3781454944741760e-03 -1.8058630449638990e-04  9.8041728775509179e-02 -1.6830258760230680e-03 5.6580192308400398e-04  9.7572077706644736e-02 -1.9268730104294246e-03 4.9926440327385314e-04  9.7124611557757382e-02 -2.1928394575106780e-03 3.6821322585204214e-04  9.6702185767828269e-02 -2.4878896242020191e-03 1.8935208321592094e-04  9.6313119232824221e-02 -2.8196431432255691e-03 -2.0684118602556674e-05  9.5971479571146420e-02 -3.2001851327160755e-03 -2.4534861635931059e-04  9.5675259990458048e-02 -3.6254734591060441e-03 -4.7016246950829405e-04  9.4782406117356416e-02 -8.1424803776763543e-03 1.5867027930993043e-03  9.4931784303685665e-02 -7.6020095426764809e-03 1.4377012352171784e-03  9.3462920617179951e-02 -9.8769027665682064e-03 1.5838158552010234e-03  9.2553380271474472e-02 -9.6820002525850601e-03 1.3667114212952754e-03  9.4133567822753700e-02 -7.5203035205531855e-03 1.2747538197476166e-03  9.3883129727394057e-02 -8.0024552024897267e-03 1.3874615695623216e-03  9.1707870045395060e-02 -9.5504710165511559e-03 1.1478858394662565e-03  9.3376164963080294e-02 -7.4943853135443260e-03 1.0890322017876987e-03  9.3039674919856416e-02 -7.9291563084292679e-03 1.1792120538838418e-03  9.0892503235399560e-02 -9.4567739962163593e-03 9.2265595621447683e-04  9.2642135211531404e-02 -7.5099232426028041e-03 8.8111764547892872e-04  9.2225237870434740e-02 -7.9012518996064429e-03 9.5423871058003811e-04  9.0069944997043946e-02 -9.3798107123607543e-03 6.8261779320536700e-04  9.1909273215915827e-02 -7.5578199912471099e-03 6.4668835372694517e-04  9.1401094838532676e-02 -7.9016735319508338e-03 7.0257536527025077e-04  8.9224582107658115e-02 -9.3084426111293729e-03 4.1177757318452469e-04  9.1140370202314289e-02 -7.6366270297493653e-03 3.7683146233708528e-04  9.0550167553876404e-02 -7.9184497558333067e-03 4.0853674861786012e-04  8.8359076243991197e-02 -9.2169034505066114e-03 5.9266257288827211e-05  9.0321342913160643e-02 -7.7482288668939449e-03 3.7208748240762664e-05  8.9707782883581028e-02 -7.9397641154176982e-03 2.2709810082926316e-05  9.9439154226734564e-02 5.1640691063918858e-04 4.5691055664460599e-04  9.9260182630685062e-02 2.1431940245716124e-04 6.5820929518388286e-04  9.9309506577071147e-02 1.4423250121146133e-04 6.5828066373095509e-04  9.8930953691346787e-02 -2.4100942270026236e-05 5.7072589353702845e-04  9.8935481114571969e-02 2.6291506224656032e-05 5.7097192034524400e-04  9.9389286145809635e-02 4.1285217462418931e-04 3.7489154845024271e-04  9.8588515323605574e-02 -3.1991522306113303e-04 4.3561411233036736e-04  9.8636280636039853e-02 -2.6944180576370173e-04 4.2398862083618702e-04  9.9302676859478148e-02 1.3678993141300169e-04 2.4939419234005930e-04  9.8233163116402289e-02 -7.2912606784292916e-04 2.5707003740384421e-04  9.8335378440174190e-02 -6.6807856555645118e-04 2.3087944778529812e-04  9.9168720373544614e-02 -2.4227283921138029e-04 9.0750802175237379e-05  9.7841364966641364e-02 -1.2308530380188390e-03 5.0901223896940565e-05  9.8007612569453256e-02 -1.1568237018698716e-03 5.8354308092080206e-06  9.8928652551819679e-02 -7.1589687664314343e-04 -9.3746884871702868e-05  9.7464295001366053e-02 -1.7832659066648131e-03 -1.5762854491330644e-04  9.7684540578584056e-02 -1.6896257654701857e-03 -2.3026608446573047e-04  9.8578673601386155e-02 -1.2461796595048329e-03 -2.9473038229183587e-04  9.7221520586251386e-02 -2.3360262584846492e-03 -3.6021423995258035e-04  9.7457606546602155e-02 -2.2072058303167340e-03 -4.4667122030366831e-04  9.8226710503092396e-02 -1.7029900274387183e-03 -4.6639138601636078e-04  9.8393009537274256e-02 -1.7357842214606733e-03 1.0224487090119523e-03  9.8496834543737047e-02 -1.9126975000938085e-03 1.1047194944187068e-03  9.7809968566868521e-02 -1.9709820043972534e-03 9.8866400997366425e-04  9.7780154937062658e-02 -1.8328919714709314e-03 9.2933430563378811e-04  9.7151036724526588e-02 -2.1182165555461980e-03 8.2456630109570890e-04  9.7189813907638659e-02 -2.0038847186901036e-03 7.7681562256029773e-04  9.6517808570651967e-02 -2.3430724346485995e-03 6.1732368569178745e-04  9.6622365677964658e-02 -2.2435887869144012e-03 5.7697845869645323e-04  9.5904270095443694e-02 -2.6502142499174926e-03 3.6836314934938125e-04  9.6079595733696802e-02 -2.5549148361592396e-03 3.3880204527049718e-04  9.5321204673822851e-02 -3.0653843853361796e-03 9.0768766100766669e-05  9.5574564237907458e-02 -2.9511301907081174e-03 7.0220375739185508e-05  9.4815487552057418e-02 -3.5896355427662728e-03 -1.8662089227400839e-04  9.5135362055825429e-02 -3.4615961924923575e-03 -2.17237385850719