<?xml version="1.0"?>
<VTKFile type="UnstructuredGrid"  version="0.1"  >
<UnstructuredGrid>
<Piece  NumberOfPoints="981" NumberOfCells="4230">
<Points>
<DataArray  type="Float64"  NumberOfComponents="3"  format="ascii">3.991541217480066 3.698556371658856 1.338207427536615  4.060714809303454 3.728606006988149 1.41515125202811  4.080048611877761 3.664302473949722 1.281925884378632  4.068574280932948 3.803880642204564 1.388777533080252  3.998485250475829 3.771287279839985 1.302273199381589  4.085126691681688 3.736092660097749 1.244824380231953  4.090196836218716 3.80770264771449 1.207595249243451  4.076379752410499 3.87904807206725 1.362223893017007  4.005390843172163 3.843844935978267 1.266234846768009  4.095265813690426 3.879179223265395 1.170305369885368  4.084173728449354 3.954173149286275 1.335573267985906  4.012278852909829 3.916298426332924 1.230125258313313  4.100348991048904 3.95058672782868 1.132997327357653  4.092002784165613 4.029292952809569 1.308900840828561  4.019171912743835 3.988695077793561 1.193989442292742  4.105460013727268 4.021962323985676 1.095711099570032  4.09990701194763 4.104426596647175 1.282263795677475  4.026086927496404 4.061063344925469 1.157865609609095  4.110600760888282 4.093339944131435 1.058468460267769  4.107922957487274 4.17957420511393 1.255703355068646  4.033069475306254 4.133414894587321 1.121786892770985  4.190893101958958 3.696714739879053 1.365050046211961  4.169529763305832 3.628124615009745 1.220226622475653  4.172520951722637 3.698366950060533 1.180664768001333  4.196800930119218 3.770082972776359 1.335807466422174  4.202670818676204 3.843301296671298 1.306379396143864  4.175527689470416 3.768377143626642 1.14097337892361  4.208541518404242 3.91645779930616 1.276843895840576  4.1785488760881 3.838249765218564 1.101223174002235  4.214446975961749 3.98959523820072 1.247278437066202  4.181589531719256 3.908041434438896 1.061460649187771  4.220416465104409 4.062734897487825 1.217743710522166  4.184656564226708 3.977794606646579 1.021725522928574  4.226480739844852 4.135884431190777 1.188313377416915  4.187717879216183 4.04754450228771 0.9820448504324897  3.179214107900854 3.03617855153557 0.8528137542545382  3.278440755230003 3.169005856729401 0.8615816796601879  3.307547427420377 3.045302268486585 0.8440821367485494  3.300543182469791 3.050541679021938 0.7649890185403561  3.274495043251769 3.183290791309249 0.7815071365073698  3.179087127441906 3.039508770332678 0.7737493498578153  3.293651420504612 3.055648528355261 0.6860146343733233  3.270709358430306 3.197427649178184 0.7014940657473254  3.179068295387259 3.042681275405387 0.694761164634993  3.286826154306355 3.060629903296842 0.6071314051693989  3.266989047819271 3.211445226513176 0.6215611611213063  3.179119934725088 3.045740701091636 0.615849849792793  3.280036412508429 3.065563869736264 0.5283139387549678  3.263255724843749 3.225376329506217 0.541695067250479  3.179210633050573 3.048753534937278 0.5369925316448753  3.273209398172618 3.07049467647006 0.4495526378181295  3.259455795527118 3.239276840710881 0.4618747065386433  3.179265274461393 3.051756441736649 0.458180046726125  3.266273750766088 3.075467507039201 0.3708576807786728  3.255515279679896 3.253211069252856 0.3820969109535029  3.931412379326278 3.577081442199834 1.129995577669352  3.966455845632824 3.648367204503438 1.232128213160263  4.054502654668797 3.592713683634576 1.157694394965241  4.05742208541257 3.660772380766883 1.111844130110373  3.971893192211119 3.719049608669608 1.189940469883077  3.934875404591823 3.643267991264837 1.079766260815741  4.060382816045188 3.728578408963903 1.065946502349653  3.977325330580149 3.78953416868051 1.147688442168531  3.938375014839333 3.709230423925003 1.029526123411727  4.063362408433351 3.796216509048264 1.020033998130984  3.982754745937776 3.859892640190606 1.105408098682956  3.941884822456843 3.775027366646086 0.9793021135572931  4.066345602210845 3.863747834220761 0.974130170672052  3.988185798351529 3.930169540811651 1.063126334183889  3.945386218938568 3.840716094466235 0.9290998177645479  4.069317617527465 3.931213373514891 0.9282502549365373  3.993622789497401 4.000402773556885 1.020863538509163  3.948860932595968 3.906331897206754 0.8789243917472892  4.072278385642289 3.998663017951587 0.8824048374789772  3.999082999559012 4.070619609823418 0.9786474328484638  3.952302194647454 3.971891868749494 0.8287874394634251  3.511517512117915 3.322787742548778 0.8999018652337446  3.588560958859979 3.42594012214533 0.9650718213152492  3.646918929858691 3.33001940675391 0.9004691850861948  3.647040596742558 3.368426197089497 0.8258154306616122  3.590181783458994 3.475062424138547 0.8964795986506564  3.510398687848614 3.359176286199274 0.8243143809239407  3.509448877178209 3.395402847067939 0.7487838395477394  3.591953688158991 3.523993605002844 0.8279674512333594  3.647322881677399 3.406628153438631 0.7512835989696642  3.647647647309975 3.44468633057993 0.6768185146595115  3.593762929102924 3.572790224754173 0.7595279994241251  3.508556777366187 3.431495288797144 0.6733501999861553  3.595542509637744 3.621489012764939 0.6911396453792104  3.507631233729533 3.467491076198367 0.5979684371340185  3.647942731551888 3.482620944566297 0.6024364831313659  3.597230214744755 3.670117706393692 0.6227957372601054  3.506602754394577 3.503424110372953 0.5226341338548032  3.648138196172595 3.520472902351038 0.5281130505875464  3.598768046097824 3.71869386395531 0.5544811658464326  3.505399101686442 3.539334628729083 0.4473313983107071  3.64817914804955 3.55828150023294 0.4538532727949677  3.613978903694048 2.952514415113171 0.8195264997886784  3.580121626854475 3.109349398107173 0.8299207321424331  3.722150852668974 3.025328029388652 0.8162656323410604  3.576430238206139 3.121687512580356 0.7496587120343093  3.608735911520156 2.950784156008273 0.7411754984154317  3.717385575816528 3.03136733852616 0.7367612734449445  3.572844608242656 3.133906647667594 0.6695459627596004  3.603556461224597 2.948964491425909 0.6629820687923857  3.712692393589652 3.037321700532373 0.6574393264470378  3.569311355322124 3.145991750525289 0.5895679050565785  3.598430185743037 2.947072952789833 0.5849426390389307  3.708039097034201 3.043178682832513 0.5782840791996033  3.565781366058651 3.157988010062097 0.5096839848255219  3.593355946758626 2.945154902100816 0.5070015828052367  3.703425520406717 3.048977531395446 0.4992388214497565  3.56221233223808 3.169974956585922 0.42987521418371  3.588253779036063 2.943225550054813 0.4291584439513304  3.698801969886401 3.054751946766937 0.4202857295767784  3.558491611000645 3.181967588205337 0.3501269559309986  3.583031582718157 2.941315641147 0.3514128589479311  3.694048339761023 3.060522073309135 0.3414431730927923  3.389219650933562 2.840140625727656 0.7704321027653407  3.28890557653737 2.922728585236655 0.7634755105724147  3.266628202651244 2.780628283820695 0.7930836143832095  3.293692565451235 2.927590962353801 0.8407610859497247  3.394720682955727 2.851849901291966 0.845489989719323  3.263178035791628 2.766137958132169 0.7201199448634495  3.383787030343434 2.828349520669732 0.6955020927347897  3.284189957437077 2.917743274285037 0.6863135649017182  3.259810764544264 2.751604375995139 0.6472648908544701  3.378443856868513 2.81651810152222 0.620690455555829  3.279570601316932 2.912693875381575 0.6092447459975742  3.367785810226914 2.792809385673467 0.4713548646789337  3.270360086352559 2.902524416843733 0.4553354209072567  3.253091844800758 2.722485899009148 0.5018069728421301  3.274988213606887 2.907607260378443 0.5322508341587235  3.373132317252573 2.804660699198003 0.5459766548915991  3.249608569750634 2.707970883277991 0.429191071272443  3.36236361476128 2.781007660342954 0.3968116202714431  3.265626875234735 2.897494909683828 0.3785044980129631  3.692477864614612 3.618227034307833 1.15938709504195  3.830496660259865 3.630525602130526 1.190727329277817  3.791202834654334 3.545393849999184 1.079275782092797  3.794945857606941 3.607547525234301 1.022623476334862  3.836124684937444 3.69914451340782 1.143247697548408  3.69914801365655 3.684524647212672 1.107904095818776  3.798745583471922 3.669483412717658 0.9659907226962552  3.841772607943631 3.767556490987258 1.095763523028808  3.705845320659209 3.750631011442995 1.056423121561937  3.802544811375585 3.731264581136482 0.9094139283895938  3.847411744600024 3.835832646551498 1.048285434563335  3.712524441506969 3.816604228116699 1.004982232804214  3.806320730417269 3.792938061390375 0.8528735990905361  3.853038578404292 3.904015565911011 1.000817785367405  3.719182439393344 3.882485428565706 0.9535631061284778  3.810049069139841 3.854537927992062 0.7963613739180102  3.858647282501265 3.972137301583453 0.9533636549129701  3.725808486819928 3.948301218014351 0.9021547405299291  3.81370790530106 3.916087262142919 0.7398583325655452  3.864222336607093 4.040233055435963 0.9059313819757229  3.732383134400222 4.014074537921222 0.8507567345323257  3.739834660808588 3.690161040573626 1.268867674987203  3.748488310007684 3.761473443459082 1.225959936328856  3.757106998644006 3.832617976191251 1.183030744711913  3.765696714849381 3.903645583811699 1.140100862940664  3.774271179934011 3.974596110559133 1.097176030359337  3.782841877116125 4.045500654368438 1.054263045430152  3.791416149370916 4.116384806366124 1.011366646359243  2.971606608172654 3.554445968760059 0.9878310484940392  3.133624974694714 3.504196640444869 0.9874722643599971  3.041716989624162 3.415356625286794 0.9269781216320283  3.051321482280003 3.452039682231114 0.8512180670226044  3.142209644731321 3.548655617201431 0.9153294571120886  2.982135395871843 3.604886913563755 0.9188033259714944  3.061008412196625 3.488620567824655 0.7755042336797274  3.150885404951747 3.593009600126321 0.8432379467709175  2.992697125577122 3.655272902502797 0.8498196470283206  3.070713134025941 3.525136648651499 0.6998309763752362  3.15956450053562 3.637290019680254 0.7711993518778295  3.003247076912602 3.705620964657691
[...]
<PointData  Vectors="f_16"> 
<DataArray  type="Float64"  Name="f_16"  NumberOfComponents="3" format="ascii">7.2413659096402697e-02 -2.2270895630453973e-02 -6.4318949047014696e-03  7.1599435176649809e-02 -2.4123349715229048e-02 -6.0079625967496561e-03  7.1720163286526958e-02 -2.2614143092365677e-02 -7.0485698899946277e-03  7.2638199768918915e-02 -2.3409117790125805e-02 -5.0800385837270331e-03  7.3359789979246165e-02 -2.1430231698145650e-02 -5.7030665751882492e-03  7.2560368153235022e-02 -2.1718678449761601e-02 -6.3433853027780110e-03  7.3363377259631962e-02 -2.0903106595548167e-02 -5.6704890854211536e-03  7.3615446351493266e-02 -2.2739144071751836e-02 -4.1977680313502004e-03  7.4258231442344697e-02 -2.0663315297366813e-02 -5.0034975658023052e-03  7.4151881609562847e-02 -2.0140826695201959e-02 -5.0077170168390094e-03  7.4571867626372551e-02 -2.2094591135650911e-02 -3.3375399367693973e-03  7.5132717120229522e-02 -1.9943220854187229e-02 -4.3152030445061862e-03  7.4946089155750475e-02 -1.9412669146174757e-02 -4.3351003603884532e-03  7.5540861465177953e-02 -2.1463758594989588e-02 -2.4730640129999315e-03  7.6007680005464207e-02 -1.9254306878320956e-02 -3.6197478508907068e-03  7.5763929013937428e-02 -1.8706081808719754e-02 -3.6358551497802827e-03  7.6550933799600804e-02 -2.0841721784313729e-02 -1.5823274303453734e-03  7.6904091033949601e-02 -1.8587504634476948e-02 -2.9023649316370979e-03  7.6622725958758214e-02 -1.8011238984200040e-02 -2.8951515183830356e-03  7.7627682288708116e-02 -2.0230927920965935e-02 -6.4682020587811641e-04  7.7846917746156985e-02 -1.7938681304120706e-02 -2.1467328097025257e-03  7.0522475601028034e-02 -2.5003222766456428e-02 -6.5797506216174776e-03  7.1037522778137283e-02 -2.2781948247494407e-02 -7.7118617346506905e-03  7.1765931322723922e-02 -2.1819245048665517e-02 -7.0587552442641730e-03  7.1421665432794559e-02 -2.4190760346819728e-02 -5.6538611633272264e-03  7.2277669916027742e-02 -2.3430714880104661e-02 -4.7880419287747158e-03  7.2470044269469056e-02 -2.0955502284925081e-02 -6.4370862820715196e-03  7.3116506289307534e-02 -2.2697884635035373e-02 -3.9513036981943779e-03  7.3166942318660319e-02 -2.0151721225815988e-02 -5.8235921884618345e-03  7.3968742078397057e-02 -2.1977560406063742e-02 -3.1134085917760243e-03  7.3872638300904278e-02 -1.9385021605813464e-02 -5.1983912318818715e-03  7.4859810912865352e-02 -2.1261470167582834e-02 -2.2515624444626675e-03  7.4600459395424687e-02 -1.8640485157715814e-02 -4.5459808709169087e-03  7.5811095043314167e-02 -2.0545669923672707e-02 -1.3531487218046796e-03  7.5354542964089069e-02 -1.7912489044830615e-02 -3.8497409498477807e-03  8.0134988080684991e-02 -1.2472613531207306e-02 -5.4790593416423712e-03  7.9546995156010603e-02 -1.2861913315683184e-02 -6.2121159738170771e-03  7.9238627082535970e-02 -1.3237794274236461e-02 -6.3224464164864822e-03  7.8825622613821894e-02 -1.3372172344833001e-02 -6.6744817801937658e-03  7.9293787138826122e-02 -1.2878923883530803e-02 -6.6330854678962742e-03  7.9771297540742941e-02 -1.2615986115477944e-02 -5.8410108629618398e-03  7.8478408337587596e-02 -1.3388597536755129e-02 -7.0055490615131642e-03  7.9039292207291736e-02 -1.2761950163948781e-02 -6.9923376486991599e-03  7.9422592964810398e-02 -1.2680856314793643e-02 -6.2006772027005672e-03  7.8163855426471140e-02 -1.3371823049008375e-02 -7.3106834846701817e-03  7.8820241661966994e-02 -1.2632958362691410e-02 -7.3100375094459361e-03  7.9088206596700489e-02 -1.2721327895460282e-02 -6.5488509932052855e-03  7.7845208425329493e-02 -1.3351134240184064e-02 -7.6056571280025314e-03  7.8598150651138038e-02 -1.2508544396728978e-02 -7.6065825959768883e-03  7.8751824598606537e-02 -1.2759407082483265e-02 -6.8889840984731644e-03  7.7479404000670424e-02 -1.3346862369955539e-02 -7.9085200280980244e-03  7.8339183512896121e-02 -1.2397582785730612e-02 -7.9044237715698330e-03  7.8397504435688298e-02 -1.2812400933676438e-02 -7.2371131282508491e-03  7.6971850320872628e-02 -1.3381410310615630e-02 -8.2439538348289768e-03  7.7971377708564715e-02 -1.2305785651533280e-02 -8.2523815269782089e-03  7.3479244313094244e-02 -1.9372025120272363e-02 -7.8625525758569247e-03  7.2945175340650176e-02 -2.0734227035408368e-02 -7.1057083879906557e-03  7.2261526166813209e-02 -2.0883064546511489e-02 -8.0025315836025693e-03  7.2906375715061783e-02 -1.9936448449835293e-02 -7.5645021815847506e-03  7.3730361767565145e-02 -1.9842090563035653e-02 -6.5805928572506148e-03  7.4087311734658351e-02 -1.8477835041500950e-02 -7.5778613072994550e-03  7.3529291872730551e-02 -1.9090112711433346e-02 -7.1230917862424884e-03  7.4482350152454010e-02 -1.9046147339264276e-02 -6.0527024532025745e-03  7.4659352488222377e-02 -1.7673023650013397e-02 -7.2594621874836861e-03  7.4152716573429631e-02 -1.8314869648629075e-02 -6.6649946265486650e-03  7.5222730126444565e-02 -1.8308191781309217e-02 -5.5153441096209600e-03  7.5231988792684057e-02 -1.6940002459010537e-02 -6.9127261085653599e-03  7.4781705241513105e-02 -1.7587145802191229e-02 -6.1830587234495520e-03  7.5966285800975877e-02 -1.7610370582400250e-02 -4.9583823478297484e-03  7.5808002797347437e-02 -1.6256045814441976e-02 -6.5343474524629406e-03  7.5420342137800273e-02 -1.6891506197984962e-02 -5.6704221886111827e-03  7.6726306860702170e-02 -1.6939733666515959e-02 -4.3731626997003167e-03  7.6388457281948013e-02 -1.5605981548049964e-02 -6.1225804245052832e-03  7.6074162712675239e-02 -1.6217450566468242e-02 -5.1248996557073908e-03  7.7518883861969007e-02 -1.6301588932325507e-02 -3.7427250998206259e-03  7.6975331520061308e-02 -1.4977397189927976e-02 -5.6772035428153287e-03  7.7677121209146563e-02 -1.4418233696734057e-02 -7.5351384484300763e-03  7.6951137914852155e-02 -1.5156500640951493e-02 -7.5461602492205215e-03  7.6455325479230271e-02 -1.5490155282253941e-02 -8.3637512673282489e-03  7.6487094271668832e-02 -1.5090006458822530e-02 -8.7733925387078037e-03  7.7192428318373738e-02 -1.4653071083647603e-02 -7.8513554578961333e-03  7.7681505970115722e-02 -1.4119028410540510e-02 -7.9665460333836029e-03  7.7622205544673625e-02 -1.3734476248614831e-02 -8.2559060423002921e-03  7.7339795379945189e-02 -1.4113114170586860e-02 -8.0041359479941527e-03  7.6439603763244282e-02 -1.4645952857714228e-02 -9.0388968902687938e-03  7.6404766570085325e-02 -1.4235090322428368e-02 -9.2309251786836365e-03  7.7478009186523977e-02 -1.3605891107018165e-02 -8.0890457866153124e-03  7.7571240226629534e-02 -1.3359391258790045e-02 -8.4751552362172418e-03  7.7633240091938546e-02 -1.3137752640445153e-02 -8.1325813652435418e-03  7.7525976279307601e-02 -1.3014600172154507e-02 -8.6531987135386960e-03  7.6369279007679439e-02 -1.3859080627400150e-02 -9.3700323232157375e-03  7.7775383001703793e-02 -1.2694961446233183e-02 -8.1439817752238866e-03  7.7449804168495992e-02 -1.2692046896431775e-02 -8.8053196110519667e-03  7.6311047695051620e-02 -1.3507720333742869e-02 -9.4705755370371181e-03  7.7877521024038401e-02 -1.2272923508320295e-02 -8.1282743981368703e-03  7.7300998510082250e-02 -1.2386703551630265e-02 -8.9339196631222379e-03  7.6224469648355178e-02 -1.3178343897801589e-02 -9.5246596474942383e-03  7.6642389104247546e-02 -1.5549637007392885e-02 -8.5741041351938552e-03  7.6990741949155603e-02 -1.5074471043750332e-02 -8.3780141945375038e-03  7.5747311662241273e-02 -1.6182019713972359e-02 -9.4622924430630244e-03  7.6601380313718381e-02 -1.5062023125112857e-02 -8.8503384276196282e-03  7.6069752811327426e-02 -1.5703654224944196e-02 -8.9405296221330543e-03  7.5257675991591347e-02 -1.6234889781255500e-02 -9.8962950201595783e-03  7.6230210496215978e-02 -1.4966156055309805e-02 -9.2258403545745719e-03  7.5550419206760880e-02 -1.5796076451509398e-02 -9.2621075015139470e-03  7.4800456930932263e-02 -1.6218716857223824e-02 -1.0252357578940781e-02  7.5879424639098553e-02 -1.4859191509342571e-02 -9.5343125312111962e-03  7.5047476617225342e-02 -1.5852800108625727e-02 -9.5458611806515728e-03  7.4370601400524608e-02 -1.6178362656820964e-02 -1.0544686802385924e-02  7.5514692659151894e-02 -1.4755312196348843e-02 -9.8015583763989850e-03  7.4529535810196487e-02 -1.5898672064285035e-02 -9.7972419857119096e-03  7.3935085490936053e-02 -1.6135684297718767e-02 -1.0781880840851516e-02  7.5111340452749614e-02 -1.4664928687708551e-02 -1.0033322012901134e-02  7.3970327374906067e-02 -1.5948364795049075e-02 -1.0018576355472738e-02  7.3464052865486185e-02 -1.6099936560068456e-02 -1.0973489517461233e-02  7.4654449656405691e-02 -1.4592013615119383e-02 -1.0228892078901701e-02  7.3357688200234722e-02 -1.6012633201518741e-02 -1.0213114212593462e-02  7.2941799378738514e-02 -1.6070149133495033e-02 -1.1131838178419092e-02  7.7791080779847616e-02 -1.4485462705151400e-02 -6.8172926658524122e-03  7.8671208759169234e-02 -1.3630163235285422e-02 -6.3285263089962254e-03  7.8728037610615823e-02 -1.3829350503979520e-02 -5.6671900291073614e-03  7.9178934613030216e-02 -1.3419940325578734e-02 -6.0367112893271275e-03  7.8396865797410134e-02 -1.4236841151283089e-02 -6.5813338615428934e-03  7.8245841976228886e-02 -1.4063732651153878e-02 -5.8922661579252442e-03  7.7273752249836777e-02 -1.4691317387590771e-02 -7.0649123961319532e-03  7.8241270992256820e-02 -1.3776069739477632e-02 -6.6250486647068804e-03  7.7765105832149350e-02 -1.4270867274297083e-02 -6.1425588835980699e-03  7.6767151218779930e-02 -1.4858790872333447e-02 -7.3211664179466960e-03  7.7823734376277098e-02 -1.3886075488992646e-02 -6.9218526379373939e-03  7.5665968737697931e-02 -1.5197220558857111e-02 -7.8502841210881143e-03  7.6917196469631077e-02 -1.4114992241495927e-02 -7.5382689474249778e-03  7.6743306767776673e-02 -1.4701575945098898e-02 -6.6958434727711364e-03  7.7393054595994562e-02 -1.3991992919808603e-02 -7.2232854973705383e-03  7.6241722612751403e-02 -1.5020219480875797e-02 -7.5834135271547693e-03  7.6141001828360311e-02 -1.4968370173447307e-02 -7.0149049331146660e-03  7.4996358852095379e-02 -1.5408145874510271e-02 -8.1099740457992661e-03  7.6335267222376491e-02 -1.4271228647720005e-02 -7.8783983461813683e-03  7.5686101616778786e-02 -1.7093857163435741e-02 -6.6858307436482188e-03  7.4325959510763540e-02 -1.8830379907549009e-02 -6.9894048461150524e-03  7.4914696567701347e-02 -1.7566581586472660e-02 -7.6975713115188431e-03  7.5439129148817577e-02 -1.6768178542673449e-02 -7.6263983343697744e-03  7.5045404568124155e-02 -1.7985249312261843e-02 -6.6476930180620836e-03  7.6351191292321888e-02 -1.6330414035500493e-02 -6.5005550149240072e-03  7.5885572339379065e-02 -1.6033408599091113e-02 -7.4809045943321070e-03  7.5729929126713363e-02 -1.7222048153402215e-02 -6.2760684855808829e-03  7.6955091678627824e-02 -1.5634987708460578e-02 -6.2615322518693372e-03  7.6342254818132088e-02 -1.5368225819013447e-02 -7.2908941958350001e-03  7.6405079487621180e-02 -1.6522784370768390e-02 -5.8781390828931595e-03  7.7554032233228015e-02 -1.4996472041624445e-02 -5.9822103654251025e-03  7.6801104267074219e-02 -1.4750329458194131e-02 -7.0605846574749694e-03  7.7079749833513886e-02 -1.5869017585767517e-02 -5.4518584837941328e-03  7.8151775717802602e-02 -1.4401648951079904e-02 -5.6685632692242650e-03  7.7258442418013620e-02 -1.4165755843955161e-02 -6.7933146463190095e-03  7.7760432420787312e-02 -1.5248922459807855e-02 -4.9960234131082026e-03  7.8749471039970112e-02 -1.3840636522328642e-02 -5.3254277008096384e-03  7.7712824090030191e-02 -1.3602569613497643e-02 -6.4916991621038434e-03  7.8450259392016192e-02 -1.4654596843536025e-02 -4.5099298400873801e-03  7.9345368971396824e-02 -1.3307609790674987e-02 -4.9574801723368334e-03  7.5000867985540690e-02 -1.8455445631691322e-02 -6.1039411495031042e-03  7.5872334173870057e-02 -1.7687626157678302e-02 -5.6759332977018573e-03  7.6695136719574286e-02 -1.6993777381543333e-02 -5.2246849543551646e-03  7.7492215160606642e-02 -1.6355530427050367e-02 -4.7498679695713282e-03  7.8283606973312617e-02 -1.5759682670931436e-02 -4.2497778642995058e-03  7.9084093187200180e-02 -1.5196748117584051e-02 -3.7216860979971548e-03  7.9907814591486853e-02 -1.4659350368826679e-02 -3.1596283783344539e-03  8.2325336936128243e-02 -9.9984788288537893e-03 -4.4651238911759339e-03  8.0902574136565111e-02 -1.1389199585414286e-02 -5.1024820262749208e-03  8.1546640300906317e-02 -1.0865468651310063e-02 -4.9516815465557021e-03  8.1677708206113184e-02 -1.0672533513248039e-02 -5.3064457974108820e-03  8.1166567215085597e-02 -1.1106735812898802e-02 -5.4039752775520630e-03  8.2634209827028973e-02 -9.7262576561101127e-03 -4.7070217301726329e-03  8.1693619742990928e-02 -1.0387039271023205e-02 -5.5993000747603877e-03  8.1332840938228970e-02 -1.0745635817151225e-02 -5.6112077132716917e-03  8.2841333956345645e-02 -9.3946316468948438e-03 -4.8738187828180511e-03  8.1704534899634459e-02 -1.0107412526378765e-02 -5.8642002026058938e-03  8.1470169790080371e-02 -1.0372099314076033e-02 -5.7780697508424822e-03  8.3048465800302826e-02 -9.0587107555276658e-03 -5.0191131901545149e-03  8.1735993377011859e-02 -9.8490949244205012e-03 -6.1108139153907880e-03  8.1628871131648559e-02 -1.0027962826046764e-02 -5.9267773491230840e-03  8.3275357372311842e-02 -8.7433668966171250e-03 -5.1482690002369290e-03  8.1784666189932520e-02 -9.6020786043313662e-03 -6.3480434511919851e-03  8.1800883859154669e-02 -9.7034134952772317e-03 -6.0615414306699686e-03  8.3520605629004638e-02 -8.4461277342555083e-03 -5.2622554008055124e-03  8.1856400302572921e-02 -9.3573335467255474e-03 -6.5875280473880393e-03  8.1987344360428802e-02 -9.3881070824579950e-03 -6.2100535326995686e-03  8.1657991413872144e-02 -1.1494698368227040e-02 -2.7716089810441089e-03  8.0028343499946822e-02 -1.3746748429839129e-02 -2.8584593567855037e-03  8.0300259381186401e-02 -1.2669301146595650e-02 -3.5039179766595064e-03  8.1197757367278800e-02 -1.2149414221818311e-02 -3.2592912253836654e-03  8.1125975095089065e-02 -1.3257418266455831e-02 -2.4175122555863335e-03  8.2543016411774500e-02 -1.0997030469509865e-02 -2.5216980397549608e-03  8.2059294960675058e-02 -1.1696724359350166e-02 -2.9543914428133223e-03  7.6842922594423033e-02 -1.7844444990109891e-02 -3.6983996102400718e-03  7.6239623446940449e-02 -1.9535162379091392e-02 -3.3573481753045964e-03  7.5418300120748863e-02 -2.0220146555244768e-02 -3.9099785196883849e-03  7.6773645660501350e-02 -1.9825115289774237e-02 -3.0419097152185712e-03  7.7630939742435540e-02 -1.9241646035276429e-02 -2.5019698599879139e-03  7.8132070506764864e-02 -1.7395797160638962e-02 -2.9970025703233614e-03  7.8067512170170217e-02 -1.9483179144660988e-02 -2.1970012011587495e-03  7.8977843935874426e-02 -1.8997829849273205e-02 -1.6670440876848272e-03  7.9347365644337337e-02 -1.7019959483721554e-02 -2.2910457921887692e-03  7.9308343673218096e-02 -1.9177191725970946e-02 -1.3674194927935121e-03  8.0260869745935146e-02 -1.8789311196113108e-02 -8.4720505619491153e-04  8.0508420315579907e-02 -1.6697902436319200e-02 -1.5833219094670066e-03  8.0535127314182012e-02 -1.8902470879107586e-02 -5.3367071787141897e-04  8.1525176098274185e-02 -1.8614669744605402e-02 -2.3709382336007255e-05  8.1650656531670127e-02 -1.6420874302589050e-02 -8.6413476124853818e-04  8.1780970736611391e-02 -1.8662053775535779e-02 3.1749634590102002e-04  8.2805663199236310e-02 -1.8477462629233863e-02 8.1762421622058341e-04  8.2802542562427653e-02 -1.6189198123407838e-02 -1.2584408981166633e-04  8.3075199990426035e-02 -1.8465145455914562e-02 1.1951020984812045e-03  8.4137538524342595e-02 -1.8388176896449417e-02 1.6887520290755922e-03  8.3987153294792463e-02 -1.5998627656152582e-02 6.3769028164474540e-04  8.0552099725046233e-02 -1.1976038479526920e-02 -5.4352777565484078e-03  8.0320863082318825e-02 -1.1988998702810253e-02 -5.8607408077116065e-03  8.0067782449978545e-02 -1.1926844281622334e-02 -6.2501757938420964e-03  7.9821480999329161e-02 -1.1857013113155084e-02 -6.6124655006105431e-03  7.9572389564084495e-02 -1.1791666604826757e-02 -6.9631621892943208e-03  7.9309903202893092e-02 -1.1734300495106676e-02 -7.3245052855784309e-03  6.9293730769022302e-02 -2.1978208552949505e-02 -1.0131373764780105e-02  6.8904684433761021e-02 -2.3332767546970602e-02 -9.1601536744782986e-03  6.7819760725277331e-02 -2.3426092217372175e-02 -9.7944098817750493e-03  6.9434261574680661e-02 -2.2302091631582203e-02 -8.6283421938221170e-03  6.9713964361595757e-02 -2.0942336368178421e-02 -9.8663771217769695e-03  6.8267973660399259e-02 -2.2356712776155030e-02 -9.3788903002541817e-03  6.8692822031331952e-02 -2.1424728213066124e-02 -8.9870046468236413e-03  6.9920917055432893e-02 -2.1390685910932794e-02 -8.1273884485061430e-03  7.0117667834749278e-02 -2.0059655152008589e-02 -9.5877676705149167e-03  6.9105381559004184e-02 -2.0576598050751280e-02 -8.5863907184661765e-03  7.0398348505581076e-02 -2.0552920716718465e-02 -7.6291711766832545e-03  7.0516518273857312e-02 -1.9265604323361531e-02 -9.2808050174715499e-03  6.9520721954018663e-02 -1.9777672620041181e-02 -8.1615404366275207e-03  7.0880732495982895e-02 -1.9757336143036944e-02 -7.1140509956799155e-03  7.0917258593774249e-02 -1.8526414642019883e-02 -8.9404947625848306e-03  6.9949331842593693e-02 -1.9009475686505611e-02 -7.6998868362709392e-03  7.1380614280493429e-02 -1.8986395195856418e-02 -6.5679305499471612e-03  7.1325098424882299e-02 -1.7825171358169325e-02 -8.5608354720971107e-03  7.0395197206893301e-02 -1.8258339166599611e-02 -7.1996438181730505e-03  7.1927995844373691e-02 -1.8242859634563721e-02 -5.9791740001819910e-03  7.1747065923818756e-02 -1.7166671449726337e-02 -8.1311446350363342e-03  7.9949935141049200e-02 -1.2412230903891701e-02 -5.9161967304510593e-03  7.9893453254475458e-02 -1.2293779152218794e-02 -6.3585438261792495e-03  7.9766884864916912e-02 -1.2053063586016025e-02 -6.7110102173072311e-03  7.9647794178654585e-02 -1.1813788115680547e-02 -7.0160614939266501e-03  7.9533914489091639e-02 -1.1594294766228185e-02 -7.2983333039371946e-03  7.9405106018716268e-02 -1.1388823777236625e-02 -7.5778490155509375e-03  7.9254982282915193e-02 -1.1183377063141323e-02 -7.8918849485837151e-03  7.9219584042501776e-02 -1.3037494337887184e-02 -6.3205392388890154e-03  7.8105326815465406e-02 -1.4071455208787784e-02 -6.8657357311007767e-03  7.8309543386394204e-02 -1.3665551597821294e-02 -7.2150214217891334e-03  7.9301495619675116e-02 -1.2781212053454370e-02 -6.7350446056815760e-03  7.8431144476966155e-02 -1.3198110953009514e-02 -7.4122585958826242e-03  7.9308240724747778e-02 -1.2423151409299700e-02 -7.0176869422834765e-03  7.8539220114529434e-02 -1.2733400120640096e-02 -7.5403858810683330e-03  7.9305978012898792e-02 -1.2058307735932057e-02 -7.2361917926385610e-03  7.8666125753567115e-02 -1.2304645238428382e-02 -7.6353444571137258e-03  7.9320687333045037e-02 -1.1719869116713095e-02 -7.4262289991039506e-03  7.8782940001248469e-02 -1.1896979205221352e-02 -7.7092987082598334e-03  7.9322496577697563e-02 -1.1396685369682595e-02 -7.6032414546943284e-03  7.8839571344896456e-02 -1.1511648846129222e-02 -7.7561014558858157e-03  7.9274224397541282e-02 -1.1078097441183297e-02 -7.7935403306331440e-03  7.3809837824502775e-02 -1.8452023847274786e-02 -8.5751302872580960e-03  7.2598363304687594e-02 -1.9820423366641492e-02 -8.7640644721181035e-03  7.2898646384353311e-02 -1.8943292674587969e-02 -9.5528893522266404e-03  7.3202055525438542e-02 -1.8096039208662405e-02 -9.5884066529459307e-03  7.3094032335489681e-02 -1.8885563213666835e-02 -8.5402571934805414e-03  7.4244237125369511e-02 -1.7595513495398958e-02 -8.5229947076308089e-03  7.4632798033224118e-02 -1.6826001789465233e-02 -8.3963855816016029e-03  7.3567491322105077e-02 -1.8059075178323405e-02 -8.2769220446025100e-03  7.3493084056382996e-02 -1.7331434726292796e-02 -9.5310071573116023e-03  7.5031379558601438e-02 -1.6132208002137990e-02 -8.2255331116368076e-03  7.4051738727332922e-02 -1.7310031150560103e-02 -7.9783287747507651e-03  7.3805480317762281e-02 -1.6650557941705616e-02 -9.4167168244954167e-03  7.5431702565918191e-02 -1.5489895682787169e-02 -8.0133104457144229e-03  7.4542117131330521e-02 -1.6613838879681188e-02 -7.6427808367182269e-03  7.4120148387586710e-02 -1.6025619485263150e-02 -9.2533420314760001e-03  7.5825184170792911e-02 -1