<?xml version="1.0"?>
<VTKFile type="UnstructuredGrid"  version="0.1"  >
<UnstructuredGrid>
<Piece  NumberOfPoints="929" NumberOfCells="3951">
<Points>
<DataArray  type="Float64"  NumberOfComponents="3"  format="ascii">11.46918238537791 3.73144422164939 3.690194489027493  11.34371061177841 3.833511991213953 3.624466178810795  11.35291028153968 3.700808976165242 3.712626405680792  11.35681082491192 3.740928279920273 3.781021273376167  11.34473509392808 3.881579040355123 3.687341419570479  11.47180675023099 3.772836754733573 3.76066206336606  11.34547945836829 3.930155655795188 3.750051684343204  11.47404260221692 3.814443242983587 3.831407470748881  11.36022369092216 3.781632713248555 3.849542419029982  11.34618252976586 3.978959755774821 3.81278426391396  11.47599470384265 3.856380046820278 3.902415013121464  11.36348271973778 3.822643717379771 3.91824786588638  11.34684031348935 4.027945674179016 3.875607689522013  11.47789784378288 3.898645463317317 3.973709511716842  11.36675242175493 3.863833160843714 3.98721199949969  11.47965987768687 3.941261307144691 4.045192685947126  11.34740185876545 4.077055397616475 3.938712801316399  11.37004611918152 3.905134767778785 4.056456018808102  11.48088569169225 3.984144492222966 4.117032307301804  11.34791824705297 4.126127915275148 4.002179110151451  11.37316019227145 3.946266847151567 4.126251059751003  11.45017313350942 2.916924176512455 3.83578465703532  11.35592941900119 3.012875163010499 3.868285342044679  11.32664056721734 2.875209698350337 3.836812574918075  11.33154950168484 2.854299117138548 3.909020417914622  11.35971225008262 3.000459966062045 3.944533165793009  11.45315473437145 2.897308470834177 3.910023945454036  11.36306823277795 2.988143880511002 4.02141497589185  11.45561067174809 2.877287746080698 3.985203530891194  11.33601889371579 2.833174190201677 3.982113193773494  11.3663791788716 2.975590429717057 4.098924824119757  11.45782756665671 2.857071986891709 4.061257779094712  11.3402682997464 2.811794640376938 4.055866118100417  11.46001907804282 2.83669533639754 4.138080236025102  11.36991102595112 2.962672641634218 4.177255120840473  11.3445918043419 2.790083880484417 4.130277602418792  11.46252851047075 2.8159742797214 4.215786302428707  11.37390045941859 2.949499343180149 4.256304052496713  11.34930354527794 2.767986808706764 4.205469180081297  11.46549816718832 2.795067643106027 4.294536613596675  11.37854670792716 2.935950973824475 4.336258616164265  11.35501712784644 2.745517699430303 4.28152410317271  11.22985479022653 3.026625669198073 3.876304859304197  11.23335453612093 3.018413052135011 3.95146254081644  11.23627828083607 3.010526565785237 4.027429970613115  11.23921129221637 3.002344781110382 4.104050438440328  11.24234667037797 2.99384081514369 4.18127299065784  11.24587211410469 2.984989219893052 4.258998770081665  11.25008938314555 2.975803801660739 4.33712249278377  11.1218940323388 3.044060303420383 3.880338226641348  11.19743606152493 2.924460951123327 3.863682866623614  11.19839064254816 2.908150089363812 3.936746556067799  11.11958296308339 3.036435215624464 3.954473491081779  11.19882496566886 2.891867390446864 4.01059760425292  11.11660193799984 3.029139747688169 4.029263928522287  11.19925044920103 2.87526957583677 4.085059397090249  11.11357531471332 3.021541592705498 4.104690842319654  11.19988870878425 2.858295727640284 4.16008789451013  11.11076467463587 3.013622769508598 4.180608982433681  11.201007441164 2.840968084861712 4.23563275831653  11.10833633596535 3.005385522218571 4.256904058196389  11.20285678337005 2.823324772528568 4.3115682968244  11.10640862693329 2.996835461749688 4.333431198721572  11.09112934661492 2.896934617578685 3.927673317017779  11.08615049321809 2.878476756298743 3.999220314523061  11.08113753373887 2.859777246868817 4.071288214398636  11.2460374211805 3.753234248156851 3.688371533731913  11.246950230679 3.796984388653835 3.752457297276558  11.24739810228192 3.841478305703868 3.816401638955701  11.24782373449721 3.886212732215935 3.880458645456128  11.24837716116403 3.931070738069276 3.944705613065913  11.24901263347475 3.975936109096617 4.009241594164979  11.24965736812706 4.020500473484151 4.074327679052863  11.34711222588896 3.125502288126574 3.875353960343597  11.22673002907236 3.177930931417255 3.887121552248308  11.22971001043798 3.179119851232588 3.963879870338087  11.35204391653452 3.124127405397821 3.952728785618473  11.23222857827469 3.180646150449876 4.041434083969869  11.35667077794471 3.122992841876151 4.031007269388716  11.23488067840873 3.181947927377417 4.119538649159544  11.36139073162702 3.121656749519426 4.109976076527269  11.2377756742007 3.182972219798195 4.198169367651423  11.36633527582819 3.120105591611802 4.189550292673322  11.24107425390007 3.183676113235569 4.277322800640301  11.37166941232595 3.118322870106639 4.269763176705788  11.2449656447581 3.183972191623649 4.356978592369575  11.37766425104687 3.116215873987768 4.350706065646009  11.47206802735888 3.281571553081779 3.858209434965001  11.34074641460891 3.387181987332938 3.84588647698514  11.35500450917771 3.238260676811364 3.872873545626046  11.36156460657662 3.245856584399645 3.95084202431302  11.34706285000672 3.407076371554694 3.922010706913197  11.47947433031264 3.292928636974558 3.937640768831663  11.48685856854962 3.30430084716357 4.017578788165071  11.35299796752508 3.427378229879045 3.998703022342482  11.36792484280101 3.253659195871822 4.029509765246524  11.49424574789093 3.31575000169321 4.098033864884108  11.35879376370454 3.447772712114262 4.075858170172287  11.37436242580762 3.261375564357332 4.108759290271545  11.50167921392777 3.327215520648995 4.178986788607098  11.36462954089132 3.468097324999603 4.15350362148506  11.38094561419627 3.268938980285742 4.188527550170105  11.50921111185247 3.33860826150489 4.260591420184443  11.37072949462245 3.48819328855428 4.231714862573078  11.38782925334891 3.276286809060495 4.26887902831423  11.37735441341649 3.507996117335765 4.310502272003195  11.51730762033774 3.349846875835158 4.343316699955087  11.39533624570067 3.283346168554954 4.349872971761497  11.10128810863083 3.167616347254959 3.890210656066237  10.99768839394744 3.236201096457173 3.882692402997097  11.01264015688984 3.103512938842689 3.880227554981657  11.00681124425663 3.099437675137855 3.953230799629381  10.99156075224353 3.240678136461127 3.956419494312618  11.09833586354203 3.167599747574433 3.965380242030613  11.00014887612324 3.09564388716859 4.026854877791121  10.98470045859888 3.245594588665201 4.030631441065367  11.09469812453957 3.167873355485007 4.041253344569966  10.99340484624467 3.091670569349452 4.100963747960155  10.97784672239451 3.250376814430231 4.105295344384887  11.09111940942176 3.167922446066708 4.117654828260862  10.98683049450282 3.087443271307842 4.175488334763539  10.97117607261415 3.254936975470192 4.180366036948178  11.0877916528414 3.167681597412376 4.194517333025276  10.98052669585031 3.0829493174169 4.250367529772609  10.96475212831028 3.25925504230042 4.25579375185621  11.08479451560887 3.167119401114933 4.271783123578453  10.97454505473578 3.078172456116209 4.325538612496379  10.95857347735059 3.263313567831136 4.33153176767031  11.08221838920974 3.166201316830718 4.34936226946498  11.22027256534307 3.40222901225823 3.85454117254729  11.10646757849812 3.449300911462444 3.847526579787437  11.12816760235449 3.300719467809368 3.88211795634372  11.12831729586418 3.312382080016084 3.957410545420423  11.10667032579176 3.474435834057848 3.919497229380423  11.22508676287257 3.423093684747557 3.929043891133441  11.12788672981287 3.324540546424619 4.033326386387512  11.10620822668665 3.500203122043558 3.991812209566691  11.22932654476267 3.444509010139467 4.004039534416878  11.12751858140675 3.336559236704844 4.109780686064419  11.10567604691895 3.526019293577355 4.064523855388624  11.23347257611505 3.466007375020362 4.079503782722763  11.12736677405303 3.348343991980814 4.186686156153021  11.10533847834396 3.551670037266237 4.137667848234967  11.23778983842065 3.487322875493047 4.15544533091413  11.12753611581866 3.359859673118375 4.263941351153577  11.10528348545215 3.577127065984915 4.211210022139908  11.24243611324325 3.508424579682648 4.231867231824618  11.12813036138452 3.371073283511951 4.341412006902889  11.10561566951118 3.60238570524308 4.285094363195813  11.24761151437109 3.529301308677793 4.308722205060391  11.33833691247257 3.606449898726171 3.765428245767453  11.22737042915379 3.651319631365714 3.745762915125434  11.24501673406783 3.514393842378047 3.815030730490832  11.2494863354982 3.544466093569929 3.886844892315334  11.22967829200146 3.68924190319141 3.812944655494883  11.34341226225927 3.642117170971847 3.8360626872306  11.25335836328585 3.575163964777782 3.958940426505383  11.2313585020569 3.727969754621862 3.88019942862092  11.3479480184488 3.678338840373875 3.906863352158182  11.25701621002787 3.606080972148116 4.031346210269246  11.2328706258029 3.767034542358842 3.947660464179648  11.3522103071009 3.714888153531346 3.977921198182944  11.26077022373748 3.636923988621573 4.104185629210338  11.23452846260831 3.806143300636851 4.015450352149493  11.3564973264638 3.751515802618091 4.049388909058175  11.26478455745907 3.667586407845545 4.177494266261454  11.23641587419255 3.845196745526386 4.083531442332861  11.36085872654446 3.788151871485925 4.121336943976075  11.26922531575589 3.698012872189707 4.251240888311938  11.23846742649318 3.883940717901376 4.152075690308184  11.36543766038788 3.82463596333 4.193943880873625  10.95523394876957 2.982658412698936 3.938185768942256  10.94833271528646 2.971107225346756 4.009606881650708  10.9412763018955 2.959359900030742 4.081435050785833  10.9343028445705 2.947376048312579 4.153650661604918  11.2484879794237 3.292781410738197 3.87676485721799  11.25391051909211 3.305787681231517 3.953091198831205  11.2589458857849 3.319260493462451 4.030111769035293  11.26400520847206 3.332660905387012 4.107664491043499  11.26928
[...]
<PointData  Vectors="f_16"> 
<DataArray  type="Float64"  Name="f_16"  NumberOfComponents="3" format="ascii">2.2145917220257820e-04 1.9849428386486883e-05 4.2286983656431877e-04  7.3636869600189560e-04 2.1346942410966862e-04 1.1469841559920964e-03  6.3232073457240140e-04 2.3117200341868041e-04 1.2003048275314083e-03  1.0674688918338889e-03 4.3430201137652837e-04 1.4415322041926588e-03  1.0865636510775003e-03 4.7497040690095289e-04 1.3741758431392826e-03  5.2625583020739122e-04 1.6122493688663621e-04 5.9853506078586612e-04  1.2237532785827415e-03 7.3227461400685197e-04 1.6033155260512192e-03  6.5384050014201704e-04 3.4223268887495094e-04 8.3196663594749644e-04  1.2726836792367963e-03 6.6263242483218464e-04 1.6935055353481780e-03  1.2981084151108700e-03 9.8265942489395974e-04 1.8339120059066181e-03  7.2765947374580839e-04 5.3878531984082143e-04 1.1050570360332868e-03  1.3951323144376425e-03 9.0027378684997899e-04 1.9581032179843312e-03  1.4153671292525083e-03 1.2285348244007140e-03 2.0609973539549562e-03  8.4016863303935094e-04 7.5300633600570727e-04 1.4114408764128686e-03  1.5299402681531865e-03 1.1444212978353767e-03 2.2257805798603638e-03  1.0606798189121028e-03 9.9136634659531520e-04 1.7357131014898348e-03  1.6015799018113924e-03 1.4874215702438099e-03 2.2625814090678621e-03  1.7517459587446627e-03 1.3955198952557010e-03 2.4832948032568682e-03  1.4313419522998150e-03 1.2606166955591825e-03 2.0724398889193467e-03  1.8872114998743522e-03 1.7608386404816948e-03 2.4369931282744325e-03  2.0999105853978929e-03 1.6555428197521206e-03 2.7316299838961388e-03  3.9788231869027215e-04 2.3210597294215864e-04 5.8416729501571056e-04  9.0364850701473180e-04 1.4953361808093632e-04 1.4520381401800998e-03  1.1431781010124956e-03 8.7770359890312411e-05 1.6342802516639697e-03  1.7231913153632288e-03 -6.8928867115099844e-05 2.0085862960543587e-03  1.4676340913844113e-03 7.9896532506210753e-05 1.8325119836342650e-03  8.5477041422409787e-04 1.3856183900996154e-04 8.7324031694309379e-04  1.8004944611317547e-03 1.0751411360600926e-05 2.2573092774713023e-03  1.0954476532637472e-03 2.7404613156264349e-05 1.2618082449604728e-03  2.0599908922272177e-03 -2.1619582043714457e-04 2.4121872070055977e-03  2.0538179961059094e-03 -5.9588511399173645e-05 2.7181028897081197e-03  1.2724085806417700e-03 -9.9423621903067794e-05 1.7121883368049842e-03  2.3106831721770422e-03 -3.6448809506891509e-04 2.8460481698839796e-03  1.4787094959579708e-03 -2.3873106024306810e-04 2.2003186264848845e-03  2.3297829422023286e-03 -1.2716919011695178e-04 3.1997822434943119e-03  2.5743704776135250e-03 -5.1568134851495120e-04 3.2940572441164883e-03  1.7938754716819055e-03 -3.8972280282299933e-04 2.7188483020904194e-03  2.7046433026491814e-03 -1.9287492482045565e-04 3.6806970331327779e-03  2.9242632885004786e-03 -6.6572169132210425e-04 3.7360233407360407e-03  2.2672167040239761e-03 -5.5311717132019587e-04 3.2891654075878859e-03  3.2062996475077112e-03 -2.5321525776975936e-04 4.1228056313013699e-03  3.4283424488673673e-03 -8.1953121760709497e-04 4.1777885441438402e-03  1.9016731691318472e-03 2.9765600276877288e-05 2.5819788274859400e-03  2.4761959480378046e-03 -4.1366302992509578e-05 3.0630297524418498e-03  2.8604267568856177e-03 -9.6766781878526565e-05 3.5141422126592297e-03  3.1661267918097354e-03 -1.4094573659585759e-04 3.9514623157670395e-03  3.4691275906883526e-03 -1.7742501066202510e-04 4.3777047229727724e-03  3.8253010811415758e-03 -2.0581790484638750e-04 4.7755237628935689e-03  4.2821338465766148e-03 -2.1959055967721769e-04 5.1286466496558714e-03  2.9983015171149191e-03 -9.0300339477148689e-05 3.4635252069601398e-03  2.3360069732218727e-03 -1.3207712459807272e-04 2.8336913671274835e-03  2.8863981526135651e-03 -2.8093785411900196e-04 3.3587878860100542e-03  3.5030001806127041e-03 -1.6730172499627858e-04 4.0449446769472534e-03  3.2802592845456060e-03 -4.0397504615912730e-04 3.8122149365033323e-03  3.9097027720896189e-03 -2.1465257445648891e-04 4.5433982055225631e-03  3.6124424631053054e-03 -5.1396326389036614e-04 4.2571564153773798e-03  4.2684274063478573e-03 -2.4549949466429595e-04 5.0036928474937077e-03  3.9403032364020681e-03 -6.1768823712623751e-04 4.6920179302640625e-03  4.6104577925485217e-03 -2.6613834858273485e-04 5.4339739449685938e-03  4.3091461946091888e-03 -7.1502043178314051e-04 5.0958065944143984e-03  4.9596174676743605e-03 -2.7843665288240766e-04 5.8194943812148172e-03  4.7692232199908523e-03 -7.9306411137503518e-04 5.4304798719144671e-03  5.3344552226093642e-03 -2.8342603225171246e-04 6.1309839811211197e-03  3.8685990793718653e-03 -5.0211330289093325e-04 4.1346272212894391e-03  4.2849286968331740e-03 -6.4771161783523136e-04 4.6282957161137344e-03  4.6674597872606938e-03 -7.7414170336367167e-04 5.0928599598129400e-03  1.3341098243490239e-03 4.1039743758558485e-04 1.9187833303285899e-03  1.7139898021292781e-03 7.2222517380644109e-04 2.2214239467891971e-03  1.8992146147625644e-03 1.0061669362996743e-03 2.4682848777182824e-03  2.0080336331391693e-03 1.2780945114609387e-03 2.6915177529037077e-03  2.1223472073860763e-03 1.5408906551261923e-03 2.8909159301847964e-03  2.3021454465757948e-03 1.8006820025961204e-03 3.0609621090722343e-03  2.5960358517512941e-03 2.0464488393284997e-03 3.1825565925374943e-03  8.4279188655925327e-04 1.8354154459805446e-04 1.5397135266562302e-03  1.8115346382975052e-03 1.9029301357513460e-04 2.6527255528345666e-03  2.4049191047549267e-03 1.9980193646166488e-04 3.1438318206835339e-03  1.4404201676718163e-03 1.7468305315115188e-04 1.8990167803380623e-03  2.7883729997637999e-03 2.3575198095620811e-04 3.5853135002738147e-03  1.7795188701457117e-03 1.7455705842164495e-04 2.3081981768084152e-03  3.0915524993200974e-03 2.8037125936633642e-04 4.0104257187454674e-03  2.0267235625394892e-03 1.7832287720886768e-04 2.7510869216684519e-03  3.3986381608219251e-03 3.3197420598968193e-04 4.4191628156056472e-03  2.2932182171138335e-03 1.8768232424552208e-04 3.2099725188244818e-03  3.7730609418839844e-03 3.8828745996124158e-04 4.7929468937332369e-03  2.6628487844147716e-03 2.0262523588031987e-04 3.6617378110014691e-03  4.2678698702101198e-03 4.4763265104350123e-04 5.1045060660403147e-03  3.2011038160911472e-03 2.2681465825466292e-04 4.0870019051538198e-03  1.8250635567200002e-04 1.2709603845220528e-04 4.7585133102054470e-04  7.0894873261288219e-04 2.3884679914028227e-04 1.5165527494939606e-03  7.2297076517345419e-04 2.1539312705210468e-04 1.4686927252727492e-03  1.3079018366905033e-03 2.6285782801463626e-04 1.7923880428541801e-03  1.2851078352971296e-03 3.6568397646043156e-04 1.8268534866479544e-03  5.9639999528145388e-04 1.7085913547233139e-04 6.8112128987535031e-04  7.8085820320800397e-04 2.3242003388548378e-04 9.8732176398034360e-04  1.5968535800972427e-03 4.9741435235235330e-04 2.1739437606519887e-03  1.6248648794496339e-03 3.1933461116835481e-04 2.1676109076955706e-03  8.9254244053105290e-04 3.0138797261468277e-04 1.3568160969198244e-03  1.8084820725393048e-03 6.4087077757115621e-04 2.5435737378552902e-03  1.8459623095325765e-03 3.8389117646672716e-04 2.5768163724199837e-03  1.0359207572949000e-03 3.7808567981947151e-04 1.7733261946935557e-03  2.0358090393402133e-03 7.9465112912870367e-04 2.9226456621463857e-03  2.0910013639258650e-03 4.5718718034413666e-04 3.0047954490857363e-03  1.3250842061557607e-03 4.6956901573600828e-04 2.2491151613912822e-03  2.3709375402958528e-03 9.5555486319519128e-04 3.2939610772655574e-03  2.4535522166592347e-03 5.3910724708834418e-04 3.4299755751781170e-03  2.8823949934056524e-03 1.1389448264596657e-03 3.6525174289462965e-03  1.9045422354806649e-03 6.0383209279364907e-04 2.7330447377159738e-03  3.0039772048729677e-03 6.2647976211829891e-04 3.8310841670827255e-03  3.1346754521647427e-03 8.0553999447531991e-05 3.6713788278187613e-03  4.1887042299029861e-03 3.5716616777531576e-05 4.3130588023402852e-03  4.1516562360282196e-03 -1.5821555310741823e-04 4.1949669313270845e-03  4.5156727275446522e-03 -2.0596070914122167e-04 4.7839311236688468e-03  4.5186142923485974e-03 9.4532602013849411e-05 4.9137162102729729e-03  3.6028275674115143e-03 7.9556548551574128e-05 4.2634925674347578e-03  4.8880367903640105e-03 -2.1284352136171752e-04 5.3005172969713436e-03  4.8501903569118680e-03 1.8748956835763317e-04 5.4130502606423228e-03  3.9909203475930665e-03 1.1422771479737747e-04 4.7574581056660332e-03  5.2453762867215150e-03 -1.9823491947155647e-04 5.7674261748590127e-03  5.1614709653132734e-03 2.9469124337364505e-04 5.8476131426387990e-03  4.3333100419213786e-03 1.6372910497099575e-04 5.2028328397231115e-03  5.5785772937096204e-03 -1.7348244946484826e-04 6.1951634186676614e-03  5.4519548221534098e-03 4.0586674329556714e-04 6.2323294733679863e-03  4.6603277737317043e-03 2.2024546734601927e-04 5.6097827143755750e-03  5.8798673283367410e-03 -1.4773891510413292e-04 6.5754828835799042e-03  5.7205013966750351e-03 5.1323528977495394e-04 6.5620023492977001e-03  4.9950330756016173e-03 2.7896172983893309e-04 5.9649823320489593e-03  6.1340604358991798e-03 -1.2899066153970845e-04 6.8838978451054630e-03  5.9641617974465332e-03 6.1342921677466373e-04 6.8183546942335088e-03  5.3507427043505470e-03 3.3512419198095648e-04 6.2365573738674893e-03  1.6416563834900392e-03 3.5015404652025258e-04 2.5832140089186804e-03  2.7141685901970261e-03 4.1885770041585321e-04 3.4552387630211322e-03  2.6838003710520425e-03 2.7893877506061834e-04 3.4359005929985721e-03  3.1759230211768409e-03 3.9712169655821867e-04 3.9879043466810645e-03  3.1512767339130251e-03 6.6873905860733915e-04 3.9505204446995340e-03  2.2021724264189128e-03 5.3089538976207752e-04 3.0049265748063069e-03  3.5277885873984567e-03 5.2265159243384586e-04 4.4324750475924699e-03  3.4355253510159572e-03 8.9194833692003445e-04 4.3355230760251523e-03  2.5346371633005382e-03 6.9846492497083385e-04 3.3763354172253392e-03  3.8165110151028104e-03 6.5498403782855805e-04 4.8227845954912736e-03  3.6558434854458088e-03 1.1071870857032038e-03 4.6579377465226631e-03  2.7770225081699554e-03 8.6789241135476892e-04 3.7220076071631165e-03  4.1000893992564373e-03 7.9006377305960627e-04 5.1728912776052771e-03  3.8719453301196884e-03 1.3168010514093098e-03 4.9314485896783658e-03  3.0244255236209707e-03 1.0407685606039574e-03 4.0444093499339712e-03  4.4210771020961551e-03 9.2350977953999309e-04 5.4717795758694619e-03  4.1301429911037718e-03 1.5185833131209630e-03 5.1506435238499295e-03  3.3491274230555883e-03 1.2163067351879660e-03 4.3329585868472735e-03  4.8174499078708129e-03 1.0545960399897744e-03 5.6955089855559591e-03  4.4680373247494827e-03 1.7092799826467567e-03 5.2980348301857961e-03  3.8116568657832334e-03 1.3940893084936296e-03 4.5656279356617009e-03  7.0567543563776990e-04 2.5928569192449670e-04 1.3928471819347346e-03  1.4238873594786337e-03 4.0791922100542855e-04 2.1783774393890685e-03  1.3583521562079070e-03 3.8347571448803887e-04 2.2607867455018554e-03  1.8890758094375862e-03 6.0678464784649343e-04 2.6123126246924270e-03  1.8828082827406574e-03 6.9885047612743510e-04 2.5111499842524121e-03  1.1832269960626342e-03 4.5382734078308607e-04 1.6515885216237915e-03  2.1884583239194354e-03 8.2177230160610534e-04 2.9401845123125069e-03  2.1309611977459978e-03 9.7233108169560991e-04 2.8026461740873580e-03  1.4279313421520677e-03 6.6618532289801705e-04 1.9312237999956840e-03  2.3938710397647832e-03 1.0365771302708023e-03 3.2502047835529344e-03  2.2876123580614651e-03 1.2330032311635925e-03 3.0620450474571595e-03  1.5819993507479376e-03 8.9077932490196315e-04 2.2231094255800851e-03  2.6039185878812933e-03 1.2532184404798071e-03 3.5389864930894465e-03  2.4405423576699076e-03 1.4856516790179351e-03 3.2919985062130836e-03  1.7482038169771468e-03 1.1244097111606215e-03 2.5166053924831123e-03  2.8929837080696116e-03 1.4715650515731717e-03 3.7964390596783157e-03  2.6563867324791561e-03 1.7331939194015350e-03 3.4873842102221978e-03  2.0075600031467110e-03 1.3680047070286554e-03 2.8023777431056764e-03  3.3201921824141650e-03 1.6945827491517962e-03 4.0071366660357323e-03  2.9900284040161136e-03 1.9837781755116936e-03 3.6496525359893017e-03  2.4186449235597532e-03 1.6220900022147985e-03 3.0599218833594760e-03  5.1272130824157715e-03 -5.7668221424008804e-04 4.9800740169184963e-03  5.4980364199513597e-03 -6.5995052813458866e-04 5.4841548534889017e-03  5.8731158337554899e-03 -7.2111985061399514e-04 5.9548820259263660e-03  6.2215637106116748e-03 -7.7236400683007090e-04 6.3982382446353698e-03  1.4984230079360288e-03 2.7482036117910372e-04 2.4282127855950885e-03  2.0945453094784422e-03 3.7829993984934913e-04 2.8496813926460803e-03  2.4448214231929453e-03 4.8247494259852353e-04 3.2459073870376152e-03  2.7060908015072846e-03 5.9405319032328706e-04 3.6276934362755942e-03  2.9773802023958175e-03 7.1349111655253739e-04 3.9956807740926916e-03  3.3335486942498659e-03 8.3888984635277302e-04 4.3353368720974780e-03  3.8394541469926793e-03 9.7568234496221522e-04 4.6202979837227914e-03  2.3398607591597598e-03 4.7335373222436158e-04 3.0748336497637340e-03  2.7580162681557297e-03 7.8555656340118765e-04 3.4922037403435444e-03  2.9984910234156412e-03 1.0572879544412783e-03 3.8199860456512931e-03  3.1645170987592238e-03 1.3092520309384648e-03 4.0885633269773531e-03  3.3257775137941707e-03 1.5495280755106302e-03 4.3108599617304238e-03  3.5376037255858061e-03 1.7801950901821309e-03 4.4854306101026883e-03  3.8506347480538133e-03 2.0024682524381883e-03 4.6019009259647527e-03  3.7371614679114402e-03 2.6110190343106115e-04 4.1027207811170736e-03  4.0804939932003893e-03 4.3818881965452128e-04 4.6895990909238466e-03  4.3749214141474146e-03 6.1814249580101344e-04 5.1427531357218052e-03  4.6345137924923563e-03 7.9940962981417483e-04 5.5241278883191268e-03  4.8791041566152507e-03 9.7816165597414042e-04 5.8500774776033609e-03  5.1238645448897519e-03 1.1483009714479734e-03 6.1161113183693808e-03  5.3753879221936978e-03 1.3042897268651262e-03 6.2946086683392036e-03  5.3888504664161580e-03 -3.9340921812351833e-04 4.7733304561286593e-03  5.6519352753713640e-03 -4.2079935308529832e-04 5.3243380977441891e-03  5.9726939226991786e-03 -4.0702240650651296e-04 5.8327628126081041e-03  6.3017724961710710e-03 -3.6809567519030761e-04 6.2962624715478420e-03  6.6127973534904454e-03 -3.1854907052743220e-04 6.7226462280068179e-03  6.8782815806300518e-03 -2.6927256375851170e-04 7.1145153074589967e-03  7.0451542929377926e-03 -2.3621036346116385e-04 7.4520267503221929e-03  4.9108178486355515e-05 7.9834133301768381e-05 -1.2748469941829173e-04  2.4363383115626842e-04 1.6444936967176268e-04 5.0801129165499871e-04  6.6856770387355852e-04 1.6970496250736698e-04 7.2711655510106080e-04  2.0604528044291005e-04 9.3711682626082977e-05 -1.2706307910172469e-05  8.6748217874782051e-04 1.7359689362464212e-04 1.0659921351291277e-03  2.7180225299941327e-04 1.0523675776835994e-04 2.4622995345197334e-04  9.9513363448435073e-04 1.7912036199406277e-04 1.4668006179847711e-03  3.1352866059003172e-04 1.1258006369067719e-04 5.2690667106045715e-04  1.1554993280890305e-03 1.8757200999825198e-04 1.9163683917266191e-03  3.7363837693626793e-04 1.1607973513192866e-04 8.3828981915249235e-04  1.4518785311682582e-03 2.0068582654099673e-04 2.4236921591753694e-03  5.2214715094182841e-04 1.1652874570116284e-04 1.2722698416413511e-03  2.0047404190760569e-03 2.1357168452214198e-04 2.9672910791170314e-03  9.8118365247562241e-04 1.1961495420749002e-04 1.9246608490907458e-03  4.7958497298419851e-03 -4.5915246764200780e-04 4.4186419961291020e-03  6.5153018238008351e-03 -8.1973070422365157e-04 6.8048366804960795e-03  6.7276579683648073e-03 -8.5818014843772126e-04 7.1358005545887233e-03  5.8548318928167766e-05 -4.3071800897209536e-05 -4.5962702066610100e-05  1.7953604221892719e-04 5.6539466617087568e-05 5.0387778349814713e-04  5.5071374795016620e-04 1.6562133649911996e-04 6.6520073762824962e-04  1.7907687521070609e-04 -1.3343985945349175e-05 5.6258246957251783e-05  7.2030564725173948e-04 3.2550947543634852e-04 9.1948131933124123e-04  2.3875525492363786e-04 9.3849092766650754e-05 2.5258328176869292e-04  8.1732371999195560e-04 5.0874326512259822e-04 1.2168063804218580e-03  2.7595861569412852e-04 2.1241958097798481e-04 4.7972606822949311e-04  9.3455271865782970e-04 7.0843765371083809e-04 1.5456906958902837e-03  3.3705507249739291e-04 3.2867034123453486e-04 7.4203481522460866e-04  1.1617150841303403e-03 9.4159851395703609e-04 1.9041218838770672e-03  4.8432445438919940e-04 4.7346608395668115e-04 1.0852386464315869e-03  1.5786523397892959e-03 1.2016693754180526e-03 2.3036009534680374e-03  8.9084094370575271e-04 7.3113612551700842e-04 1.6163450269671953e-03  4.1548362614331549e-04 2.8923543581681557e-04 3.6380420749238267e-04  7.6131531615540691e-04 1.5995152743755885e-04 6.3134385637555101e-04  9.4482023470618187e-04 -7.7712237786562742e-06 1.0048003054477636e-03  1.0904930774113225e-03 -1.9922624801888434e-04 1.4404051459131905e-03  1.2712802213554586e-03 -4.1607397527676640e-04 1.9217457528229137e-03  1.5656830926807307e-03 -6.6174613261028978e-04 2.4498853315469932e-03  2.0764719201102084e-03 -9.1826069065043783e-04 2.9909849603063326e-03  7.8409797366906146e-05 -6.0237933058436781e-05 -3.9458299381838738e-05  2.5921931235814384e-04 9.3674516574921041e-06 4.1353728845799773e-04  5.2564002316047621e-04 1.7217820276310575e-04 5.8215355587356427e-04  1.7223261065846666e-04 -2.6610249528923800e-05 6.2969930061886203e-05  6.0829862863154402e-04 3.7043766150263808e-04 7.9248272391265991e-04  2.2064112271383081e-04 9.5692490796482616e-05 2.3870580443203466e-04  6.7128700282737647e-04 5.5847417208237959e-04 1.0432437618939057e-03  2.5093076279483545e-04 2.1300245796135076e-04 4.3934223575202528e-04  7.8751658346713435e-04 7.5557086928548984e-04 1.3257882878632222e-03  3.1684648936192796e-04 3.1437115131175498e-04 6.8636184107776573e-04  1.0021415118080417e-03 9.8653175499084341e-04 1.6168357163954053e-03  4.5908559010887379e-04 4.5289456007382723e-04 1.0204410154423021e-03  1.3206277056257651e-03 1.2826465709888013e-03 1.8850512373558559e-03  8.9977346219453089e-04 7.9399880470655104e-04 1.4962424300211487e-03  8.6274352187281286e-03 -1.4464956823418977e-03 5.7261872019575789e-03  9.5668599891305210e-03 -2.0846589281569151e-03 5.7167812027743023e-03  9.6458176581163575e-03 -2.1744805170004970e-03 6.1062305427687777e-03  9.7315758769245270e-03 -1.9190281078271395e-03 6.5108883798577107e-03  9.5101865880270649e-03 -1.7456675232000595e-03 6.0370243241212179e-03  8.6351258062228667e-03 -1.1839553115109941e-03 6.1515092071435483e-03  9.9004038822056318e-03 -1.6610208200553069e-03 6.9016290349708156e-03  9.5348505391832563e-03 -1.4072376899882861e-03 6.3512249284783323e-03  8.7053933062694669e-03 -9.2291431448965919e-04 6.5361633798013252e-03  1.0095899641256935e-02 -1.3971393600376574e-03 7.2859379873513458e-03  9.5854316440889837e-03 -1.0656965069239439e-03 6.6604021562306206e-03  8.7968396534646442e-03 -6.5497251617078469e-04 6.8995778813294301e-03  1.0275121340357542e-02 -1.1268905736459796e-03 7.6714827083314589e-03  9.6205739843984242e-03 -7.1893663694413946e-04 6.9658793350953294e-03  8.8721402101019295e-03 -3.8219387557084626e-04 7.2471247627268398e-03  1.0392892470546920e-02 -8.5359741098429401e-04 8.0566928050237480e-03  9.6009582266851270e-03 -3.6649730108662403e-04 7.2657219503816442e-03  8.8988939165460593e-03 -1.0786792707438781e-04 7.5740954809446542e-03  1.0400049547461187e-02 -5.8344600783121294e-04 8.4320730063538931e-03  9.4911048258174546e-03 -6.4448168243467234e-06 7.5541466471028404e-03  8.8592532367582962e-03 1.5576054593017659e-04 7.8429009074443383e-03  5.5057261473380721e-03 -2.1932791456536220e-04 4.8939889585111144e-03  5.7128969332733582e-03 -1.4117048771964400e-04 5.4578689024001497e-03  5.9567982693134458e-03 -2.1281102914989260e-05 5.9411614205719864e-03  6.2074007435939027e-03 1.1528274677666092e-04 6.3659209897058300e-03  6.4426731622157724e-03 2.5542445106936065e-04 6.7430782563457853e-03  6.6414648841917638e-03 3.8850720105084162e-04 7.0751358718848028e-03  6.7736751531230852e-03 5.0263674820641500e-04 7.3491247129