<?xml version="1.0"?>
<VTKFile type="UnstructuredGrid"  version="0.1"  >
<UnstructuredGrid>
<Piece  NumberOfPoints="982" NumberOfCells="4267">
<Points>
<DataArray  type="Float64"  NumberOfComponents="3"  format="ascii">10.77217775176884 4.138345705857528 1.018016856440448  10.83845635050178 4.008594166425236 0.9226943936388814  10.71151990722335 4.043168749830587 0.9568038549299135  10.70485065318515 4.087477987637863 0.8935187551706726  10.83303960429854 4.049856156087908 0.8552060096616328  10.76454197213542 4.189073856773939 0.9584616360840722  10.69856243607851 4.131789383440235 0.830539691038461  10.82796489394984 4.091110124504421 0.7880594416845789  10.75728687263333 4.239697259625288 0.8992439783850347  10.69249085665298 4.175983498573603 0.767869501217339  10.82316189180318 4.132228712982715 0.7212736971349542  10.75031672766627 4.290121856844523 0.8403215102117338  10.68652832565394 4.22007898589764 0.7054765933464763  10.03617965698703 3.7065987064617 0.8692861443173574  10.04418622241064 3.598834226573001 0.8339598380096087  9.93207089939734 3.613033129566723 0.8549644709563538  9.922745689267213 3.629628062241274 0.7832060709439241  10.03416666205774 3.614268433032245 0.7623493992833978  10.02725011340499 3.730846877888712 0.7994702623091356  10.01846750119299 3.75534218828326 0.7295762053531251  10.02428381006517 3.629916377154819 0.6906081447652352  9.913496770347898 3.646418800997101 0.7112983073691115  10.00974304586449 3.779923459886191 0.6595999060537445  10.01445321192021 3.645614643475499 0.6187738574504782  9.904275376617283 3.66324784925729 0.639283908347778  10.00100262995815 3.80446390192767 0.5895508466232299  10.00459488754353 3.661254725855371 0.5468605644590778  9.895028105200479 3.68001602730062 0.5671743945447697  9.992179912609018 3.828866673384242 0.5194155651032909  9.994631841089264 3.676744721162463 0.4748573954786582  9.885700840397487 3.696639415200236 0.4949641805165525  9.983224894082875 3.853048622630048 0.4491648369210692  9.984504485695153 3.69202462885571 0.4027359422867317  9.876258274070858 3.71308293416067 0.4226163500545815  9.931977610504457 3.763632443341138 0.8989465602554592  9.922833102748845 3.792880943092879 0.8301013101604666  9.913794933025677 3.822372287331357 0.7611952339182206  9.904790567054796 3.851921006923815 0.6922225734026943  10.74876089847245 3.94915651307609 0.8939474617986947  10.6324966731378 3.930011763891823 0.8942396114288712  10.62747009302633 3.96653613917826 0.827265241402291  10.74399711111163 3.986427799953603 0.8257835018532294  10.73958654535454 4.02373817712426 0.7579743710025364  10.62280603142874 4.00314671426714 0.7606084943824587  10.73536947491991 4.06099700817744 0.6904485074505515  10.61832417773047 4.039764459200968 0.6941721061191282  10.73125500443526 4.098234041736821 0.6232035552460737  10.61395556840671 4.076437459029695 0.6279562427818498  10.68049746354168 4.264032223140249 0.6433484553912823  10.72706877938715 4.135377023194204 0.5562471230567434  10.609464986437 4.112987534246306 0.5619235696292592  10.67404998811983 4.307649294158229 0.5813909103865424  10.72244583577395 4.172178013834615 0.4895458253199138  10.60460800424038 4.14921553020435 0.4960554435512169  10.59813569376975 4.070543356058357 0.987078191790894  10.59071253183514 4.117362057732481 0.9272355138604951  10.58364472897117 4.164178031200425 0.867658467564883  10.57679874295857 4.210921561203298 0.8083058934916338  10.57007276118012 4.257616776870304 0.7491748403251995  10.56323817007321 4.30412068614754 0.690222523722747  10.55601829386584 4.350300107409869 0.6313874714536349  9.855066468183308 3.385759315260843 0.8407162290331425  9.822522426812681 3.281936564342686 0.8515017966298501  9.715158869837284 3.369244500365312 0.8560541100976971  9.708649432437005 3.368167801250249 0.7843268312263274  9.815653508098251 3.271546482664168 0.7818648311205448  9.847138613231827 3.385187606899786 0.7691041915837924  9.702100442682838 3.367081604002637 0.7124293445202649  9.808789097655 3.261040957174672 0.7120881773085442  9.839214212643521 3.384623972786666 0.6973192173402909  9.695524047574734 3.365944659179143 0.6404107536175898  9.80190494584066 3.250479087312973 0.6422333167160301  9.831291526658438 3.384021929511286 0.6254148994560719  9.688925665648148 3.364720759710789 0.5682979033351279  9.794980842878036 3.23987003909518 0.572318312179007  9.823341409749347 3.383343290375134 0.5534174330555461  9.682317317462106 3.363420680701255 0.4960774517373291  9.788006854692958 3.229198731737004 0.5023199164664596  9.815325444270437 3.382531634670443 0.4813249940008359  9.675739044999718 3.362052079978362 0.4237363186280203  9.781038621549811 3.218480084549831 0.43217355608825  9.807293219020698 3.381631791087206 0.409079551533875  9.793514396636791 3.466637652593837 0.852086047573545  9.785800709370362 3.471238207484412 0.7796220482291476  9.778091715345326 3.475883275032946 0.7069554883895057  9.770380739237675 3.48051036972059 0.6341487488150336  9.762643205148931 3.485057611525803 0.5612360149319702  9.754859552497981 3.489479924898853 0.488218690007481  9.747072911418375 3.493799929926666 0.4150677673642783  10.53748850807149 3.984317669945653 0.9341898421897697  10.53021924122578 4.025594858744669 0.8710940059219062  10.52330575941244 4.06696359612218 0.8082397968683723  10.51661961158612 4.108398150736287 0.7455690310228572  10.51001186032786 4.149838112807871 0.6830622485399475  10.50326583014895 4.191120197459775 0.6206735663303385  10.49614262560211 4.232078894619485 0.5583342125340891  10.56484382939248 3.369792704725523 0.7627306381169537  10.4712273986084 3.309904896692468 0.7775194254748214  10.48425787727582 3.441228915326241 0.7678286633389517  10.47969359877315 3.444176972423119 0.6957786112463238  10.46496116872203 3.303527730016263 0.7076257189170276  10.55882409546924 3.368622468451551 0.6911180908303763  10.47545248723199 3.447431554959965 0.6236451753776425  10.45901994824625 3.297383951040388 0.6376029192042644  10.5531906806731 3.367765975252509 0.6194414197217806  10.47137355113637 3.450849818129154 0.5514923208409682  10.45323924241637 3.291372812748197 0.5675378433011157  10.54774894733779 3.367107409730816 0.5477541576721194  10.46730070011156 3.454288393068223 0.479359060411132  10.44746002064233 3.285388501789257 0.497487451027341  10.54232450438181 3.366507922256132 0.4761011457374481  10.46304938246314 3.457568446115016 0.4072659241414993  10.44151238954436 3.279283469936465 0.4274803159785424  10.5367091260848 3.365769699065065 0.4045154169707135  10.45839172997819 3.460462578879403 0.3352009619410806  10.43517529576783 3.272850153523462 0.3575120995297871  10.53059293386949 3.364618927161996 0.3330268304921413  10.73254841932159 4.203526442396145 1.097004067805446  10.65899059736529 4.133889350968746 1.037301634745002  10.57713041732082 4.203586235022156 1.123850035479796  10.65029031442195 4.186590446422795 0.9819185385600229  10.72239847099598 4.259947159881982 1.044719670895101  10.56630673860981 4.26067138454108 1.075565086433737  10.64202749920212 4.23914216138953 0.9269156823399169  10.55591556404261 4.317626947904211 1.027534400545151  11.03476076551456 3.842926719436334 0.8335538807228564  10.9136377281148 3.819243745229363 0.8286580869030881  10.93790293295784 3.922998007714075 0.8710715376434831  10.91169392350685 3.847289261450252 0.7542196813299373  10.93307920744716 3.956349429656368 0.7978575076690816  10.37633601954526 3.402873935499565 0.7748291949504683  10.37196022734651 3.402132975251975 0.7033773936222131  10.36784228151193 3.401629638235388 0.6317944934941488  10.36384188413266 3.401230318183377 0.5601640159393052  10.35982415910902 3.400813560587842 0.4885251254743764  10.35564534902201 3.400233881523786 0.4168956410302932  10.35116616425299 3.399333335504394 0.3452552518025946  10.63402060507073 4.291521541710414 0.8721721304237892  11.34686505564315 3.311228099759348 0.810327781299185  11.22790617751711 3.306292050552692 0.7990438024369783  11.22997103046173 3.426531185813658 0.7914856591654493  11.23702168843928 3.297111687456256 0.7212155065463708  11.35354052891953 3.300191583855344 0.7301022639155678  11.23705191388562 3.423223700251146 0.7111648493710927  11.24582204953619 3.288227193041299 0.6435489657621375  11.3599016762085 3.28933948783983 0.6500602584781214  11.24396813895229 3.420226707343143 0.6311707505055305  11.25439451752287 3.279579102922614 0.5660226690853944  11.36594845692681 3.278626691637834 0.5701417567325884  11.25073942792559 3.417455144174169 0.5514136211732237  11.26279387255076 3.271126618520275 0.4885866220336212  11.37175230389365 3.268034292961284 0.4903221972108031  11.25738073935038 3.414881038773973 0.4718465966311964  11.27104561128592 3.262801957290114 0.4111870423922496  11.3773055518566 3.257525123615073 0.410543490887964  11.2639419428922 3.412506950348615 0.3924570268977842  11.27906250017655 3.254331242219455 0.3338960439928111  11.38266633712927 3.247037740857627 0.3308133156076015  11.270226713697 3.410026018209291 0.3133723453579542  10.13870670575353 3.638161130113422 0.8327973182197145  10.16532272579726 3.739925296420981 0.8649821025319753  10.15571015977448 3.765886345216759 0.7963227552028024  10.12891886211092 3.658075662407166 0.7624722584357242  10.14634214649317 3.79215203095639 0.7276265795101231  10.11933835584827 3.678275753541246 0.6920435892821619  10.13708514580313 3.818529791610541 0.6588915959965868  10.10984543232773 3.698556315947376 0.6215433666567231  10.12782483967846 3.844881572374842 0.5901155327259144  10.10033488815731 3.718790912450674 0.5509845983953601  10.11845315720195 3.871098773518173 0.5212788767331793  10.09070340399249 3.738876642210691 0.4803599680172213  10.10884267424558 3.897060362144074 0.4523277266812964  10.08085166494934 3.758728365385231 0.4096272147374784  10.52430655103814 3.007188644122811 0.8490791098468164  10.4067058684388 2.957967669040133 0.8893879569724346  10.44453004051311 3.080552378907928 0.83164420
[...]
<PointData  Vectors="f_16"> 
<DataArray  type="Float64"  Name="f_16"  NumberOfComponents="3" format="ascii">3.5296079213622380e-03 1.8811971198912608e-03 -3.3875321254877391e-03  3.1577947826031518e-03 1.6173918278878292e-03 -3.3960357873078035e-03  4.0514909975726456e-03 1.9121530555610130e-03 -3.8221677186254174e-03  4.2302930590472111e-03 2.2100609126543130e-03 -4.1314045166294345e-03  3.4112142225208647e-03 1.8740142151311473e-03 -3.7203900971698417e-03  3.7016125457046242e-03 2.2156357241424379e-03 -3.6416070512885123e-03  4.3441583981339970e-03 2.4512921438630169e-03 -4.3776937361277527e-03  3.5901847720932753e-03 2.0856546606199053e-03 -3.9944854856808739e-03  3.8104149212340723e-03 2.4922498263302379e-03 -3.8390138372992023e-03  4.4260955210275827e-03 2.6534037083326659e-03 -4.5762225504565089e-03  3.7280763276034252e-03 2.2630596652597271e-03 -4.2220044324685485e-03  3.8877201032592435e-03 2.7307101954455485e-03 -3.9981698948657893e-03  4.5002338184842727e-03 2.8306270732635624e-03 -4.7359720029714709e-03  1.0676348591222335e-02 1.9317955403990921e-03 -4.7118734172101077e-03  1.1021845825847519e-02 1.7983404254140847e-03 -4.4197720994091499e-03  1.1894729977763958e-02 1.7561278586965333e-03 -4.2279120552518199e-03  1.1620121151200808e-02 1.5286292766200035e-03 -4.7391013030906419e-03  1.0747519340309720e-02 1.5840509145020904e-03 -4.9180093503064333e-03  1.0435118627143436e-02 1.8791376213812257e-03 -5.2138015017542880e-03  1.0225755970704731e-02 1.8125911432196836e-03 -5.6280121695547313e-03  1.0533415710657692e-02 1.3707160285723861e-03 -5.3351265208062644e-03  1.1394709696488658e-02 1.3148058624229502e-03 -5.1709693532322768e-03  1.0046190012122088e-02 1.7332853671454503e-03 -5.9702333300843237e-03  1.0355405249748801e-02 1.1590455438132811e-03 -5.6861007039348474e-03  1.1201395640577198e-02 1.1041076467488979e-03 -5.5370236385807649e-03  9.8855470535874346e-03 1.6414736532596042e-03 -6.2526909191802406e-03  1.0193489344239077e-02 9.4321302606389424e-04 -5.9807826470777148e-03  1.1023589309829116e-02 8.8959666823762917e-04 -5.8488629724330870e-03  9.7349051256314777e-03 1.5373375450883837e-03 -6.4842097615466637e-03  1.0030001495036892e-02 7.1928160569553908e-04 -6.2271479453357807e-03  1.0845879557254313e-02 6.6576322270593636e-04 -6.1136524821161211e-03  9.5917836846426477e-03 1.4168199556740784e-03 -6.6699133559515733e-03  9.8503742691682696e-03 4.7944986062493401e-04 -6.4265497917060793e-03  1.0652622389477511e-02 4.3420124889569903e-04 -6.3460942276509051e-03  1.1278210427432751e-02 1.8911473643172109e-03 -4.7396971883669221e-03  1.1031988213722310e-02 1.9093111486738002e-03 -5.2301478030175718e-03  1.0812934494570525e-02 1.9075982427109671e-03 -5.6219925126071444e-03  1.0617880226732017e-02 1.8876101661277215e-03 -5.9447302661657982e-03  3.8787712433923857e-03 1.7337876075957470e-03 -3.8775471742256962e-03  4.8228094277527681e-03 1.9044417916681353e-03 -4.3170822368701640e-03  4.9798777927266280e-03 2.1444351885762923e-03 -4.6870205375349428e-03  4.1022580262603803e-03 1.9720456691943887e-03 -4.2330348277968971e-03  4.2557317434855808e-03 2.1555519794224064e-03 -4.5232774358049278e-03  5.0749981191646155e-03 2.3283285719317109e-03 -4.9852070331815723e-03  4.3736932594549173e-03 2.3048631841835632e-03 -4.7621710351706658e-03  5.1448257063813532e-03 2.4718580817041239e-03 -5.2239101231973343e-03  4.4811118605634238e-03 2.4337195463635668e-03 -4.9595436791160354e-03  5.2124927997062361e-03 2.5915527717746828e-03 -5.4134469412671637e-03  4.5954577418943600e-03 2.9914807353839347e-03 -4.8674000265898536e-03  4.6016429833779203e-03 2.5536359108878129e-03 -5.1246610890134103e-03  5.2971633138458110e-03 2.7004045759695425e-03 -5.5617804800629222e-03  4.7295697978368967e-03 3.1451314166249075e-03 -4.9749350659538264e-03  4.7695231928701455e-03 2.6719745069024468e-03 -5.2664056811689997e-03  5.4260467712507199e-03 2.8094058198352423e-03 -5.6838065391259015e-03  4.9279452410050514e-03 2.1331914657794163e-03 -4.1224849844108905e-03  5.0126835117989830e-03 2.4680608638814766e-03 -4.4043278987147107e-03  5.0507060819022145e-03 2.7308245690790449e-03 -4.6197100465147078e-03  5.0738412998269315e-03 2.9501201212457254e-03 -4.7878126601457105e-03  5.0983458243529182e-03 3.1407034605762476e-03 -4.9163866774329379e-03  5.1426472504712715e-03 3.3101799622896905e-03 -5.0100460239665967e-03  5.2263841406098082e-03 3.4679356864060896e-03 -5.0655181746360163e-03  1.3361823451319220e-02 1.5545623887788030e-03 -2.5999494403671870e-03  1.3955402167363670e-02 1.5523986483803186e-03 -1.5425042381177121e-03  1.4443093957593117e-02 1.3404462595879372e-03 -2.0819670313490164e-03  1.4233900398674282e-02 7.0035888726087284e-04 -2.4763417748673573e-03  1.3697702817249510e-02 8.2510329798476251e-04 -1.8051142467480192e-03  1.3077324649885903e-02 9.6157396514664800e-04 -2.9941615471200541e-03  1.4067576599704798e-02 1.1963431532024061e-04 -2.8399303502097701e-03  1.3492062876792509e-02 1.6257556138943871e-04 -2.0582611614485490e-03  1.2849868295736502e-02 4.2664193236271916e-04 -3.3517342266597186e-03  1.3928860412228142e-02 -4.3091836827731465e-04 -3.1790561656249092e-03  1.3317202427800618e-02 -4.7169404848352675e-04 -2.3031388095344158e-03  1.2656730773916379e-02 -7.9308574520752336e-05 -3.6792373171382975e-03  1.3800648419814637e-02 -9.7466100182712584e-04 -3.4998605641771621e-03  1.3152874549405065e-02 -1.1041831873103824e-03 -2.5393841535160987e-03  1.2475453741950013e-02 -5.7803989589922647e-04 -3.9804132169437853e-03  1.3663302603553303e-02 -1.5305728449486163e-03 -3.8085491370194219e-03  1.2978994867601465e-02 -1.7560519970142023e-03 -2.7691261231508990e-03  1.2284282447442370e-02 -1.0873410856143098e-03 -4.2584085683220916e-03  1.3501232919003327e-02 -2.1098379562945976e-03 -4.1116200403383740e-03  1.2774769647473806e-02 -2.4429451605427772e-03 -2.9778528618554212e-03  1.2068100110444957e-02 -1.6218781311017850e-03 -4.5114279650006472e-03  1.3538316350460844e-02 1.5068754265561690e-03 -3.0496103649571855e-03  1.3282927846801379e-02 1.0118076805633038e-03 -3.5071452862722274e-03  1.3074456690963899e-02 5.6389734709411446e-04 -3.9112298772625139e-03  1.2897237364819054e-02 1.3949737886531538e-04 -4.2732749502515550e-03  1.2732240909109934e-02 -2.8041550549216441e-04 -4.6024571092023719e-03  1.2560212064209892e-02 -7.1069163922042589e-04 -4.9043963359800659e-03  1.2361847284102143e-02 -1.1618973258734327e-03 -5.1843179564088574e-03  5.5573501288060656e-03 2.1206452711329486e-03 -4.4904976390693586e-03  5.6203752924850843e-03 2.4133328279281057e-03 -4.8330609907591728e-03  5.6488528429386991e-03 2.6325640147244213e-03 -5.0971359343846600e-03  5.6662218121720362e-03 2.8098966852535333e-03 -5.3049599958565835e-03  5.6865253449458033e-03 2.9603772727801012e-03 -5.4666995105132855e-03  5.7235292252287929e-03 3.0936955890290703e-03 -5.5869475437201653e-03  5.7970394903045196e-03 3.2152425460438452e-03 -5.6632279910589639e-03  6.7887375320809821e-03 1.0551391161482181e-03 -4.1259994727155230e-03  7.9181511849417338e-03 1.1322231632022381e-03 -3.8160454094764897e-03  7.3383173684224345e-03 1.2613318560803037e-03 -4.3755228069322517e-03  7.2680291916383099e-03 1.0351339018170515e-03 -4.8683896793066195e-03  7.7380134239971015e-03 7.5721873382281625e-04 -4.2581659521504951e-03  6.7221452732915332e-03 7.9381278493451492e-04 -4.6126324934811338e-03  7.2017337868107521e-03 8.0565064315294170e-04 -5.2593847438254064e-03  7.5997791110322946e-03 4.0521046407296900e-04 -4.6107098066325717e-03  6.6906752124906849e-03 5.3318207201812475e-04 -4.9886928560065671e-03  7.1423963332840987e-03 5.7911522123561896e-04 -5.5649357555373280e-03  7.4831698349452063e-03 7.3228814919754125e-05 -4.8820047460838801e-03  6.6687461857591343e-03 2.8161977316221393e-04 -5.2793051514615696e-03  7.0915594230817561e-03 3.5842628522279613e-04 -5.7988309642722155e-03  7.3747564431212581e-03 -2.4353260594799593e-04 -5.0846401295903320e-03  6.6494736893436138e-03 3.9704906653237755e-05 -5.5001403757139796e-03  7.0490349284233859e-03 1.4497536785226467e-04 -5.9701918195041205e-03  7.2626828762173022e-03 -5.4897123674621496e-04 -5.2273276263045242e-03  6.6285601252567853e-03 -1.9316875376345973e-04 -5.6597424546011646e-03  7.0176509408647163e-03 -5.7149130626328715e-05 -6.0866557199956480e-03  7.1330517636255470e-03 -8.4582940178748553e-04 -5.3282290628263260e-03  6.5882688654220495e-03 -4.1944943766528408e-04 -5.7538710617588357e-03  3.7738757480865483e-03 1.9502750000283593e-03 -3.2783454652920404e-03  4.3843532186489259e-03 2.0664695771217133e-03 -3.7445267168504373e-03  4.9716881376361682e-03 2.1758429800140741e-03 -3.6887950813296057e-03  4.4794562873078647e-03 2.4252464029366943e-03 -3.9701686311216936e-03  3.8858743123105352e-03 2.3252748949637871e-03 -3.4738607137433973e-03  4.9763902958020467e-03 2.5747314638211610e-03 -3.8446912711937661e-03  4.5305413367827769e-03 2.7220542415411957e-03 -4.1506387580908825e-03  4.9590728124809923e-03 2.9051128174009933e-03 -3.9548866360184275e-03  1.9550735641540085e-03 1.0315344306511722e-03 -2.6151714527504260e-03  2.7836780116533653e-03 1.2394984713200044e-03 -3.2821007146225977e-03  2.5407041204968100e-03 1.3169567250323089e-03 -3.0554435900703256e-03  3.1300701494924189e-03 1.3846050658094745e-03 -3.6651898095634364e-03  2.8718529047060508e-03 1.5088778484243801e-03 -3.4167886188286416e-03  8.5090872484111634e-03 1.3390760476586321e-03 -4.1754565239175961e-03  8.3431658640207053e-03 1.0078341154640461e-03 -4.6558013621916102e-03  8.1803991779246816e-03 6.9589518218109863e-04 -5.0265006961408313e-03  8.0362105364855420e-03 3.9766151918859180e-04 -5.3187245866525897e-03  7.9046604511420829e-03 1.0868866096812318e-04 -5.5459532396257612e-03  7.7814798150119572e-03 -1.7504435165813250e-04 -5.7143842697025557e-03  7.6740387766791188e-03 -4.5700513846692534e-04 -5.8244999257788810e-03  4.5628205315115739e-03 2.9735445065474718e-03 -4.2861472540473202e-03  5.5817056901550179e-04 3.3171024247349585e-04 -5.9623420141171344e-04  1.0606697253212789e-03 3.7594561290320988e-04 -1.2768422427192865e-03  9.6598467846093156e-04 4.2725154743407926e-04 -1.3408451482405936e-03  1.4970827460230789e-03 2.8504589956569905e-04 -1.5107986298414028e-03  9.2044522164681189e-04 2.5725741112332830e-04 -7.9338230523189534e-04  1.4191399902049840e-03 3.7290754707363922e-04 -1.5866678222108204e-03  1.7715800804805725e-03 1.7911858453629971e-04 -1.7712007279104100e-03  1.1459622468049768e-03 1.7145424032852249e-04 -1.0504110222328612e-03  1.7176760769624887e-03 3.0415516998096682e-04 -1.8572669802338466e-03  1.9675679655898927e-03 6.5634011809241955e-05 -2.0415214382442913e-03  1.3131343216961056e-03 7.2516244511652673e-05 -1.3465687213232898e-03  1.9346724408567837e-03 2.2820969694969180e-04 -2.1412422549381559e-03  2.1503711918996731e-03 -4.8448728980370095e-05 -2.3150853044956034e-03  1.4812625420067959e-03 -3.3117040349030203e-05 -1.6673329063300517e-03  2.1343864522444839e-03 1.5049064610153979e-04 -2.4294080463653526e-03  2.3710322290727789e-03 -1.5867377151774074e-04 -2.5927757964613945e-03  1.6919450422399048e-03 -1.4139266705777683e-04 -2.0087740477586703e-03  2.3636668696931261e-03 7.6290822926544755e-05 -2.7219151584898203e-03  2.6679698884477751e-03 -2.6314413058899848e-04 -2.8944970675923846e-03  1.9508086650742626e-03 -2.5315088075288989e-04 -2.3676321436472340e-03  2.6486411358126387e-03 5.7595740903909918e-06 -3.0512710586409935e-03  1.0067595751028589e-02 1.8642145784044245e-03 -4.6988263239043562e-03  9.4852768126678418e-03 2.0089337586416535e-03 -4.9131986331359219e-03  9.2807921317157385e-03 2.0307500695460230e-03 -5.3896962533445357e-03  9.8207197609420319e-03 1.7482691978600530e-03 -5.2022615453041453e-03  9.1179914345514250e-03 2.0240243412047638e-03 -5.7881374223438488e-03  9.6294332268018635e-03 1.6165840890946909e-03 -5.6223226504905624e-03  8.9848780199817228e-03 1.9927205199596694e-03 -6.1119881337971362e-03  9.4750605195993345e-03 1.4772118358571907e-03 -5.9671496375818490e-03  8.8692238610345482e-03 1.9434156575172216e-03 -6.3721809681392275e-03  9.3384962338969642e-03 1.3305647548818226e-03 -6.2482587661704166e-03  8.7599774481779986e-03 1.8803197174607721e-03 -6.5770619418471163e-03  9.2041849376138154e-03 1.1748624787242367e-03 -6.4740364115533720e-03  8.6483186549781224e-03 1.8119750881335395e-03 -6.7378744956499486e-03  9.0578520226652446e-03 1.0090959559519383e-03 -6.6555118557374221e-03  8.2703116466103753e-03 9.0513453511499923e-04 -2.0808983373128611e-03  9.7515959896607250e-03 1.2878131146068562e-03 -1.1024017593212565e-03  8.9332261456947816e-03 1.0973695647889792e-03 -2.3359007825587072e-03  8.5815271870542872e-03 5.2085466369439204e-04 -2.5480617856763585e-03  9.3110692911032977e-03 6.7753340941796103e-04 -1.1562559789098689e-03  7.9279707412962027e-03 3.4895969921554010e-04 -2.2722715479615296e-03  8.2963986714447192e-03 8.2329289987876059e-06 -2.7199105158257930e-03  8.9279906801073335e-03 1.3639511831321498e-04 -1.2108269655268780e-03  7.6461027952685369e-03 -1.3791487745930576e-04 -2.4219213500977243e-03  8.0419991450015552e-03 -4.6449094042551428e-04 -2.8486842692886081e-03  8.5762357277557530e-03 -3.6825572473826951e-04 -1.2544447377248801e-03  7.3891761203358922e-03 -5.8455069698597152e-04 -2.5341799579642233e-03  7.7958345221122846e-03 -9.1456438235324085e-04 -2.9354146589175767e-03  8.2313918469520009e-03 -8.5831245410552246e-04 -1.2758610508999673e-03  7.1365465778016604e-03 -1.0076751122420845e-03 -2.6075361412345008e-03  7.5376391389669496e-03 -1.3514496329925091e-03 -2.9794079396372425e-03  7.8758473849939691e-03 -1.3482073739461292e-03 -1.2641552187107026e-03  6.8725077483808399e-03 -1.4156661618602668e-03 -2.6382675721373905e-03  7.2778921743721914e-03 -1.7502614550517349e-03 -2.9911157705692789e-03  7.5127916129826651e-03 -1.8305272611197887e-03 -1.2273485640033894e-03  6.6112840001964794e-03 -1.7754575609893739e-03 -2.6306866193898854e-03  9.6572779591401082e-03 2.0765946564679084e-03 -4.9757467295284573e-03  9.4571075202565854e-03 2.1791777394758447e-03 -5.4244498930193690e-03  9.2796461332430389e-03 2.2445255671655622e-03 -5.7856747789041454e-03  9.1254707325510425e-03 2.2814443217053877e-03 -6.0797423733046007e-03  8.9893957049237330e-03 2.2969123379900200e-03 -6.3145826187247034e-03  8.8662376685123660e-03 2.2959617941104588e-03 -6.4986218672953497e-03  8.7581317237962111e-03 2.2883380300169143e-03 -6.6406459083366955e-03  8.1424311512629192e-03 8.9932190478889259e-04 -1.5099207723628435e-03  7.7749443380025780e-03 3.5300385962421042e-04 -1.6411703576548256e-03  7.4582126378354395e-03 -1.2098655152037453e-04 -1.7514044087857466e-03  7.1623374515711507e-03 -5.5239360418352481e-04 -1.8330679157899643e-03  6.8670492745153298e-03 -9.6066103591199855e-04 -1.8825093256721998e-03  6.5561314218469816e-03 -1.3572027375741095e-03 -1.8937830130386340e-03  6.2560773163650935e-03 -1.7221628343142949e-03 -1.8782070792752350e-03  3.2051603058756636e-03 7.6992546238310151e-04 -3.3706859779652804e-03  4.2938240043359360e-03 8.3999873496607542e-04 -3.8398084975622918e-03  4.0047829063567355e-03 1.0416030754089262e-03 -3.9040399019522718e-03  4.2829951520046488e-03 1.0386358646679609e-03 -4.3651765530163039e-03  4.5402270950463059e-03 7.3394399148079886e-04 -4.3181493668540188e-03  3.5719275981645469e-03 7.1860676860868570e-04 -3.7885097427991067e-03  4.4758338558219335e-03 9.9264599630844255e-04 -4.7258610751489344e-03  4.7061977924537082e-03 6.0410721503663292e-04 -4.6759773309684389e-03  3.8108136827471654e-03 6.3681975653022969e-04 -4.1238193927727561e-03  4.6314121431495709e-03 9.3064189405144893e-04 -5.0169106956591790e-03  4.8375629311748249e-03 4.6672847940293984e-04 -4.9583252559439305e-03  3.9918335289879795e-03 5.4513305984993301e-04 -4.3974827647379677e-03  4.7810642351772568e-03 8.6803193419320436e-04 -5.2540465557994881e-03  4.9654453932595505e-03 3.3456740679027770e-04 -5.1823416063656895e-03  4.1646025121864971e-03 4.5725233154005486e-04 -4.6247641018180722e-03  4.9537403287730286e-03 8.1532014018084221e-04 -5.4424372405413035e-03  5.1165566162750939e-03 2.1658303412406174e-04 -5.3517824047462220e-03  4.3721325074209368e-03 3.8364652838691042e-04 -4.8118584132525863e-03  5.1803649545477080e-03 7.7871580649285007e-04 -5.5773064469894799e-03  5.3164493441000280e-03 1.1988334862336220e-04 -5.4598775671082884e-03  4.6573980472372064e-03 3.3315489297589576e-04 -4.9618019449778044e-03  1.2480679992487764e-02 1.8721848555171739e-03 -5.3197347065685663e-04  1.3375205378567980e-02 1.8959346378584871e-03 -2.9502436037379066e-04  1.2313016719469725e-02 1.6382034132051623e-03 -1.4032413044957866e-03  1.1909440637620998e-02 9.1668875047648817e-04 -1.5339630729920520e-03  1.3008521799616268e-02 1.1080758233578095e-03 -2.9820070801925703e-04  1.2047032188331110e-02 1.1272292748385842e-03 -5.0706260364287794e-04  1.1605593767332107e-02 2.6030966175726641e-04 -1.6572226613591602e-03  1.2721814687980252e-02 3.8664154443124511e-04 -3.3662743300155149e-04  1.1703015812348687e-02 4.5480598267029807e-04 -5.1233787014301404e-04  1.1346954074519341e-02 -3.6963206808858268e-04 -1.7749318293236323e-03  1.2475910553058019e-02 -3.1202376792448927e-04 -3.9196167248790122e-04  1.1402961397517111e-02 -1.9297105402970980e-04 -5.2772290475317592e-04  1.1096862079544063e-02 -9.9832957425554899e-04 -1.8796292050948810e-03  1.2239723738929096e-02 -1.0178534945471740e-03 -4.5058081816717589e-04  1.1112090574009253e-02 -8.4227793574940201e-04 -5.4011416017153474e-04  1.0820569107193437e-02 -1.6422978088208556e-03 -1.9624829670471192e-03  1.1982287787419440e-02 -1.7541840475875858e-03 -5.0183852407249189e-04  1.0798751820379631e-02 -1.5104472454549988e-03 -5.3783370672549522e-04  1.0473554190078125e-02 -2.3008852259860150e-03 -2.0032176875700233e-03  1.1663927248225587e-02 -2.5417914184660655e-03 -5.3512552535675290e-04  1.0436301119669950e-02 -2.2148241000132340e-03 -5.1854343484099340e-04  3.4682148554302998e-03 6.1884520063508041e-04 -3.2935882633136539e-03  3.8039767193501850e-03 4.9190072426712802e-04 -3.7248394687922951e-03  4.0144028275528269e-03 3.4640532753645471e-04 -4.0592766384498265e-03  4.1692425936980569e-03 2.0103315398133407e-04 -4.3269523812914891e-03  4.3182338704635332e-03 6.5229769509893247e-05 -4.5451295592238245e-03  4.5021935143849286e-03 -5.3707762189072645e-05 -4.7179600624514782e-03  4.7615694134067015e-03 -1.5054208890353878e-04 -4.8401379551671619e-03  1.6117164065284546e-03 4.8517192665355370e-04 -2.0439817302695075e-03  2.0838044347716404e-03 4.2026154683753669e-04 -2.3332780422046589e-03  2.3837836860824057e-03 3.3533630484699524e-04 -2.6091695188387395e-03  2.5974565203634886e-03 2.4342568457122473e-04 -2.8706981918107874e-03  2.7918182189084076e-03 1.5378830111237109e-04 -3.1182183888948433e-03  3.0218548859672128e-03 7.3886869966256156e-05 -3.3563962369510657e-03  3.3504428789363151e-03 1.0894550694834522e-05 -3.5996623253643292e-03  5.3481238190680284e-03 2.2192957207276586e-03 -4.0590632407301302e-03  6.0499188824108150e-03 2.2467155359950724e-03 -4.4427582462818714e-03  6.1227658170199505e-03 2.2673176146345646e-03 -4.1001678358054934e-03  6.0253126898436480e-03 2.5857026686762516e-03 -4.7168487899828682e-03  5.3573464920840096e-03 2.5961247670701622e-03 -4.2815001866140347e-03  6.0421921769789229e-03 2.6626151968412665e-03 -4.2527428675814462e-03  6.0080753676266148e-03 2.8592373124066389e-03 -4.9317426431703523e-03  5.3486027194746275e-03 2.9005356482636416e-03 -4.4440091512261259e-03  5.9660405838228335e-03 2.9922808380608320e-03 -4.3568328800776424e-03  5.9914902379952246e-03 3.0867077588390122e-03 -5.0956947174030072e-03  5.3344555800290006e-03 3.1588242745596721e-03 -4.5624072512419084e-03  5.8968601683313405e-03 3.2755835143239739e-03 -4.4191935488972879e-03  5.9789052997573653e-03 3.2818906887406574e-03 -5.2160794693842834e-03  5.3246978136575951e-03 3.3846373606889598e-03 -4.6431938929702918e-03  5.3944156221824016e-03 1.5607006142667815e-03 -4.5422602337435438e-03  5.0966764843031077e-03