<?xml version="1.0"?>
<VTKFile type="UnstructuredGrid"  version="0.1"  >
<UnstructuredGrid>
<Piece  NumberOfPoints="1002" NumberOfCells="4310">
<Points>
<DataArray  type="Float64"  NumberOfComponents="3"  format="ascii">1.892337479735448 1.495273367582169 3.728596863018169  1.772744288828603 1.492832285343288 3.704229928283142  1.778017148440774 1.616159383012292 3.794976779605778  1.78156530645815 1.53205539830367 3.654655157087501  1.768176152647275 1.581069983005865 3.847140640141763  1.883259836873325 1.455943846752686 3.77771680834004  1.763911585264281 1.453543821479261 3.753784636007834  1.758228467228452 1.545937517223314 3.89924781176141  1.874087038484532 1.416564712886495 3.826777318974161  1.75496782119761 1.414179217334198 3.803297823438608  1.748089727078415 1.510765052309123 3.951248098408018  1.86478491325236 1.377111642276211 3.875720277483898  1.745832398079939 1.374718285924049 3.852717602037177  0.6580122098531208 1.961284645424324 3.606435991699889  0.8055985578948363 1.930894253122196 3.610538102283274  0.8020182603725675 2.072998696393726 3.669724589372012  0.7953045074969912 2.049268548414763 3.732464854301522  0.7982521012427545 1.899681158498576 3.670208559048024  0.652132814998847 1.931476417993364 3.669085476632448  0.7892475936928129 2.025391483727518 3.795958215047644  0.7915319210827765 1.868297084025932 3.730503792251  0.6467375063008743 1.901479603838077 3.732334148748966  0.7830366788392649 2.001072504055779 3.860054392467814  0.7846336052752301 1.836458273656419 3.791383822389061  0.6410020214436524 1.870985823251541 3.79619450483689  0.7765068262839934 1.976408092526921 3.924730867133906  0.7774414434662157 1.804214075031198 3.852826308170526  0.6349277143578242 1.840081514532043 3.860724648215467  0.7695023964692378 1.951415720601223 3.989969304887814  0.769760739028128 1.771573177025171 3.914779659235798  0.6283558397348615 1.808722212934633 3.925927403939262  0.7618660407893464 1.926075178207392 4.055765072960201  0.7614313422217209 1.738617337134392 3.977204071924203  0.6211033618099808 1.776983526629696 3.991819543874644  1.667965920920965 1.60892425535863 3.527801121304857  1.79966335946516 1.610644184842764 3.555723774737396  1.679019004845544 1.72909023949139 3.619410243920931  1.669221531444094 1.694400850585809 3.672161771236719  1.790486064002196 1.571288311748821 3.605123937210708  1.659328671737286 1.570197930291633 3.578086285002567  1.651023870074509 1.531566795561273 3.628555447637629  1.659744162863374 1.659832375791766 3.725038692581363  1.642845337548708 1.492916276656645 3.679118983401483  1.650385440688589 1.625245662901424 3.777963210988962  1.634632930712988 1.454178406022973 3.729707767405121  1.641009866471719 1.590578105172188 3.83087934013241  1.626289591601494 1.415325485499094 3.780279145349398  1.631517826194264 1.555821772711231 3.883749354067678  1.617674587566173 1.376352366564167 3.830793754331213  1.621765366675889 1.521013845613207 3.936531507043039  0.6825478930820645 1.466060601852684 3.194194565502567  0.8057291250429108 1.525501717449775 3.292945317912633  0.6789860864368964 1.562162580650087 3.304075222249104  0.6713304010515864 1.513421056137507 3.352103179805605  0.7961937749918194 1.477248774704501 3.339444236141169  0.6731081704374737 1.413778907711354 3.238280228441699  0.6648348040654162 1.360760515479065 3.283048699476388  0.7876192395415281 1.428327408894728 3.38663185531048  0.6646129751220228 1.463970496707633 3.400851658865221  0.6566580568928158 1.306905234987894 3.328447405193906  0.7791145054960522 1.37875717246883 3.434302078528706  0.6578792190970786 1.413716465963097 3.450212198793793  0.6480904443889055 1.252221668242639 3.374330498022056  0.7703043907518872 1.328578490912131 3.482450747167127  0.6507655015528987 1.362764556301729 3.500102757023921  0.6387497691864086 1.196876664745192 3.42091336075663  0.7607918455834695 1.27780786558551 3.531255149261442  0.642968647764238 1.311128572809586 3.550762744720084  0.628409143045583 1.140846785602502 3.468299377731185  0.7503287826724888 1.226530463593771 3.580680533395266  0.6342499138522733 1.258778780035584 3.602343132625764  1.425105556599394 1.62278158996172 3.498753693035805  1.547327475397633 1.615850504281466 3.514007558377372  1.442561166169553 1.727690261396846 3.576050577815282  1.434583323235507 1.692119793016773 3.628872244737969  1.539215790909732 1.577377984842238 3.564997661338969  1.4170188298896 1.583985982401916 3.54974723113447  1.427096591977022 1.656595490411165 3.681974980337259  1.531518562853761 1.538966973196585 3.616218298541144  1.409410114900811 1.54520808366808 3.601021443062664  1.419748637795297 1.620974533443676 3.735248376992034  1.523945546756556 1.500484625978381 3.667580415352782  1.401919220174882 1.506302540880413 3.652501749718534  1.41234023014922 1.585215913292547 3.7886345858573  1.516320348410046 1.46188322517728 3.719020871947576  1.394354933461572 1.467236129387999 3.704124449076514  1.404704518225223 1.549300487361132 3.842083097218768  1.508505172793349 1.42314991063806 3.770492477183867  1.386550850080161 1.428001780947683 3.755841426269924  1.396675133094676 1.51321868720125 3.895544503768298  1.500364273789779 1.384293565114833 3.821950097121329  1.378347630673027 1.388602559068326 3.807580605783226  0.903453195854894 1.870252745912929 3.591147247727263  0.9304803128243403 1.787769058743288 3.5387939055494  1.015802258101413 1.860230851286973 3.605908954774296  1.008001707514334 1.827415786744127 3.662596483241518  0.9220380728211685 1.749947938765359 3.592389963727995  0.8948103356710748 1.836538615681872 3.6479644829426  1.000834186180497 1.79446545734753 3.719850090062716  0.9142984317013341 1.711872293451045 3.646712083933754  0.8867604189098178 1.802546878746523 3.705503901348215  0.9065727920789811 1.673382182698233 3.70150480395982  0.8786579340232974 1.768162884075631 3.763535803944081  0.9936427876431497 1.761151955821908 3.777591878502087  0.8985889099167963 1.634463539864901 3.75673678990527  0.8702877476063988 1.733395537961586 3.82203000238269  0.9862083010531137 1.727500044977937 3.835699792630257  0.8901464211865902 1.595113028321363 3.812345218027225  0.8614536244408297 1.698228643378211 3.880958812292742  0.978326853871519 1.693528617912586 3.894114370694052  0.8809937582154679 1.555295619371897 3.868258460383515  0.8518702032603731 1.662601791872503 3.940274973399695  0.9698452401367047 1.659245244974965 3.952770128959706  1.808027181181352 1.721416207852052 3.63843455153719  1.79781140513665 1.686234596564078 3.690560490231414  1.787861144154638 1.651191815535856 3.742767371044132  0.9083565773695566 1.595893732391511 3.381923043939459  0.7865266575207387 1.643406420845184 3.39845285309294  0.7785593133711768 1.599348650844602 3.448600484280347  0.8993991317993209 1.552307199313998 3.431348632603417  0.8912510859337263 1.508310538242162 3.481438597773006  0.7714399511611758 1.554675906354896 3.499621074007224  0.8832057772668562 1.463765049612719 3.53200750091594  0.7643855844202834 1.509350512103374 3.551183518461412  0.8749095562908062 1.418655896063208 3.583129491240072  0.7570829989150111 1.463382021014411 3.603256317768713  0.749185218590352 1.417028228758348 3.655786583190076  0.8660123815251184 1.373097720569854 3.634727346681172  0.740417248360478 1.370148155891106 3.708906032502593  0.8562180778694681 1.327019578978238 3.686932054705654  1.55693203205864 1.737546209675752 3.602436835697856  1.548260700372472 1.70274458523074 3.655479280797568  1.539981466775645 1.668023775166812 3.708725709314527  1.531833515807662 1.633261619607932 3.76207200461436  1.523640953953677 1.598394830305139 3.815461309096245  1.515274729618382 1.563413745744929 3.868851481435035  1.506593687906299 1.528307234694445 3.922178632777205  0.67248298843372 1.867880544619464 3.552669061146452  0.6816924970117 1.745020585507371 3.468611463032123  0.8061721114907127 1.827856416612384 3.545318189743901  0.7981455511454072 1.791000862886799 3.60076180338738  0.6757019319703846 1.703893628714358 3.523287277551987  0.6661135105777937 1.831575922564542 3.610835785765038  0.6603630654449538 1.794902939944944 3.669739626881301  0.6704753845643612 1.662261253547199 3.578750027634758  0.790741815270989 1.753713744000408 3.657160332112701  0.6652382812891101 1.620034105076983 3.634763144126854  0.6544787708973216 1.757660784831659 3.729316309152508  0.7833271735267462 1.715955685873095 3.714114142348163  0.6596946531331765 1.577207094015899 3.691356036474685  0.6483243547383126 1.719903048636707 3.789531732081368  0.775603128141934 1.677718341387878 3.771595697845838  0.6416489716771734 1.681705438310675 3.850371064220644  0.6535976899771897 1.533715476647946 3.748762225788989  0.767398475584409 1.639038686430465 3.829541138573296  0.6342112002111837 1.642903052209485 3.911908697374312  0.6466984108145184 1.489642507796104 3.807093730317541  0.7584067768144185 1.59979757096492 3.88802734395211  1.878206540707698 1.940821012499648 4.109506593088258  1.758083480504961 1.821985354642752 4.044967106785983  1.760181660041033 1.992100466978806 4.114216184822787  1.767382546822385 2.01175114444319 4.054410417978999  1.76710360809445 1.846616509820631 3.987410595711067  1.869108372301542 1.92089526023533 4.168498703300465  1.748847091018487 1.797401382223948 4.102427003712767  1.752734188254392 1.972519965374399 4.173942080602661  1.857432584413866 2.436603060476882 4.146574127152221  1.736379384064801 2.272242137296996 4.112912392445376  1.725952806457154 2.439447443878321 4.132559595151617  1.743265411002057 2.282548187349581 4.050567116809557  1.733071496979075 2.443422984066263 4.069305714971517  1.852334479515418 2.432895829798645 4.209765933430901  1.729392341856811 2.261925953584085 4.175214485258747  1.718708527440928 2.435473016558617 4.19579344850621  1.84699769629842 2.429304481441946 4.27290571694067  1.722143108247927 2.251709595416315 4.237485461858997  1.711215915733858 2.43156718850652 4.25899082503993  1.874840159176183 2.1
[...]
<PointData  Vectors="f_16"> 
<DataArray  type="Float64"  Name="f_16"  NumberOfComponents="3" format="ascii">8.3211088394638866e-02 -1.6665960128916354e-02 8.3702969778380321e-03  8.4604400836683011e-02 -1.5575064506285784e-02 7.7128300545834458e-03  8.4432224060880898e-02 -1.4767092049496618e-02 7.8738945379810358e-03  8.5385063717253032e-02 -1.5535625538336274e-02 7.5249417276416486e-03  8.3664469103971240e-02 -1.4802607049470931e-02 8.0624660376241806e-03  8.2458257805561694e-02 -1.6710869893802553e-02 8.5416971920975228e-03  8.3833390084730314e-02 -1.5617606961382660e-02 7.9012842375329236e-03  8.2896067216626748e-02 -1.4839485125024893e-02 8.2641026294824789e-03  8.1707529971921183e-02 -1.6749113407442590e-02 8.7219087111439046e-03  8.3067448755257803e-02 -1.5651472058614696e-02 8.1002425945143636e-03  8.2122566213541040e-02 -1.4873243348790758e-02 8.4854188266299431e-03  8.0953938105796472e-02 -1.6771836591765763e-02 8.9205908834284735e-03  8.2300454046245086e-02 -1.5667520473648795e-02 8.3190201646312131e-03  9.8461194840968116e-02 -2.1203974980465354e-03 4.5771541923077854e-04  9.7449736771617834e-02 -3.4202441396876519e-03 1.3034661009481854e-03  9.7429511661806065e-02 -3.1341054559170913e-03 1.2872591805164397e-03  9.6760600660735580e-02 -3.1744129188230118e-03 1.5334027712925193e-03  9.6719626092816646e-02 -3.4864953688415281e-03 1.5448067533711560e-03  9.7824300593802413e-02 -2.2008030448582407e-03 6.9872315040515269e-04  9.6171466316630497e-02 -3.2573933032900952e-03 1.8232878936936992e-03  9.6077130064301255e-02 -3.5970374648957811e-03 1.8281692133636270e-03  9.7286557516197136e-02 -2.3228517471268022e-03 1.0000757663995007e-03  9.5619560725654307e-02 -3.3463705783651596e-03 2.1561697442805667e-03  9.5474913845608619e-02 -3.7177152853125166e-03 2.1556047396546962e-03  9.6791567446517193e-02 -2.4594571589517150e-03 1.3630257505226914e-03  9.5091700779864632e-02 -3.4390614249838296e-03 2.5308524936249600e-03  9.4893706658112004e-02 -3.8488420950352400e-03 2.5282475143305035e-03  9.6315552819750655e-02 -2.6110649960113938e-03 1.7836649048056190e-03  9.4574402727436238e-02 -3.5339990742284666e-03 2.9475801021364959e-03  9.4315972540582910e-02 -3.9901515051791615e-03 2.9440944903724696e-03  9.5844784599826913e-02 -2.7766924471316445e-03 2.2568129467789074e-03  9.4053747492380976e-02 -3.6327744762383080e-03 3.4187426437566441e-03  9.3726216099469864e-02 -4.1398420532039832e-03 3.4002299425045573e-03  9.5372611195084417e-02 -2.9530294246259301e-03 2.7709287108818393e-03  8.8595034877489778e-02 -1.4263636337161259e-02 6.3556272787620542e-03  8.6994770109081881e-02 -1.5530601961158817e-02 7.1212026502914874e-03  8.8352565242142231e-02 -1.3465965540278509e-02 6.5832563119796591e-03  8.7538122302591392e-02 -1.3434261274828291e-02 6.7642089248709887e-03  8.6179979560953787e-02 -1.5513753026554760e-02 7.3300837410718621e-03  8.7761386320439352e-02 -1.4246469738835560e-02 6.5881938679055495e-03  8.6940601014486737e-02 -1.4270098748679152e-02 6.8053403214508520e-03  8.6741348310368407e-02 -1.3441165141609118e-02 6.9571799401877080e-03  8.6132680746277640e-02 -1.4311250765409064e-02 7.0123162151604444e-03  8.5956863123822433e-02 -1.3467679938011252e-02 7.1580644411781925e-03  8.5336843442332194e-02 -1.4353856024794822e-02 7.2173503664391958e-03  8.5179099495182625e-02 -1.3501864211958094e-02 7.3681963148489373e-03  8.4552105985800707e-02 -1.4385326634634628e-02 7.4310530648573616e-03  8.4403755831917865e-02 -1.3536385978780039e-02 7.5935119272707036e-03  8.3778905281263624e-02 -1.4402114522830868e-02 7.6760455918400859e-03  8.3627915597907748e-02 -1.3566615061458764e-02 7.8387796073830143e-03  9.9065763023568482e-02 -2.5708608581786561e-03 6.6478257684234802e-04  9.8105462616831660e-02 -4.0836685456140474e-03 1.2973552861477739e-03  9.8908865961583672e-02 -2.5376585502611382e-03 5.8884729124848950e-04  9.8067529884631799e-02 -2.6574935144856710e-03 7.5053412413276491e-04  9.7149605335470957e-02 -4.1857463772652474e-03 1.4533701319979330e-03  9.8167837366889596e-02 -2.6827499741604761e-03 7.8384075937014050e-04  9.7374479280031928e-02 -2.8770586637339086e-03 9.6663774962560899e-04  9.6288267653136445e-02 -4.3450653310664914e-03 1.6532170898474038e-03  9.7322836217950515e-02 -2.8441251453630110e-03 9.7424859128128418e-04  9.6663130491778479e-02 -3.1551571614567304e-03 1.1981568559614273e-03  9.5495865533192281e-02 -4.5570897459924079e-03 1.8955939050668592e-03  9.6653084451714291e-02 -3.1018797876073432e-03 1.2508603844076280e-03  9.5956311950477380e-02 -3.4822735841374321e-03 1.4891226779373539e-03  9.4715616566525676e-02 -4.7976062603910423e-03 2.1844404473061055e-03  9.5986108829422268e-02 -3.3989054039260929e-03 1.5883063458650292e-03  9.5216596541214157e-02 -3.8481761617790806e-03 1.8337752995569729e-03  9.3913905016182811e-02 -5.0618030869640646e-03 2.5161455733927118e-03  9.5297836360177704e-02 -3.7322856189208851e-03 1.9825946099853138e-03  9.4418785949018563e-02 -4.2557878402619291e-03 2.2401390983129493e-03  9.3049033776589823e-02 -5.3471204285050269e-03 2.8916655415415281e-03  9.4578409860634580e-02 -4.0957133336621829e-03 2.4248142422862622e-03  9.1457203521412941e-02 -1.1553552000352015e-02 4.9833972455596487e-03  9.0003777416313172e-02 -1.2950072091280069e-02 5.6810644061679946e-03  9.1176885135008448e-02 -1.1051297583862696e-02 5.1488851768292142e-03  9.0335905531580635e-02 -1.1046943939716823e-02 5.3822582098713156e-03  8.9148273439311601e-02 -1.2946687346133075e-02 5.9364623723609259e-03  9.0574135138206627e-02 -1.1562502244507441e-02 5.2487416459454138e-03  8.9508799444780615e-02 -1.1081819118128115e-02 5.6152219006961636e-03  8.8301955851645866e-02 -1.2979270201666690e-02 6.1698138261913451e-03  8.9708483549214471e-02 -1.1607739773466135e-02 5.4936252689781542e-03  8.8694267146945518e-02 -1.1137315233804715e-02 5.8538826245206317e-03  8.7468251543635106e-02 -1.3029908796642949e-02 6.3939753932148865e-03  8.8858912682798885e-02 -1.1670285277765938e-02 5.7310658734434699e-03  8.7889971388691132e-02 -1.1198604938590397e-02 6.1018977833695604e-03  8.6647749308234170e-02 -1.3082392821830194e-02 6.6181103712963981e-03  8.8022951222282250e-02 -1.1734281579828833e-02 5.9694859775825402e-03  8.7094125408822595e-02 -1.1254770516304618e-02 6.3641061018270785e-03  8.5841309478847008e-02 -1.3122092521262368e-02 6.8517800173863216e-03  8.7197513310030644e-02 -1.1784195030838451e-02 6.2166413208984911e-03  8.6305554773944720e-02 -1.1295944283674605e-02 6.6481285421771561e-03  8.5055007380288497e-02 -1.3133356206787936e-02 7.1049160827441364e-03  8.6378098057190114e-02 -1.1803803056276933e-02 6.4782209211003278e-03  9.6705557456374380e-02 -4.4866280830520421e-03 1.9013347691130464e-03  9.6626014470309732e-02 -4.9943465900479178e-03 2.0357879647705146e-03  9.5597403017003091e-02 -5.6860604493833263e-03 2.6139778838210870e-03  9.4776626256258392e-02 -5.7458007733888284e-03 2.8654330473216918e-03  9.5775945402032506e-02 -5.0653960377076085e-03 2.2567099066889019e-03  9.5906971571124322e-02 -4.5494292981860442e-03 2.1311613446818815e-03  9.4034447995181278e-02 -5.8423933707970437e-03 3.1335226280868218e-03  9.5013612798414027e-02 -5.1766867639788669e-03 2.5109837616157258e-03  9.5205234627885979e-02 -4.6521233490062642e-03 2.3961209451495123e-03  9.4295074378060131e-02 -5.3039240938040199e-03 2.8007872622375237e-03  9.4541487467005955e-02 -4.7639270297744965e-03 2.6988967218686127e-03  9.3316032625996914e-02 -5.9454531486598152e-03 3.4315530893208952e-03  9.3591742467265135e-02 -5.4417556037358265e-03 3.1244258004743666e-03  9.3894234040645022e-02 -4.8853227375844719e-03 3.0394385325363078e-03  9.2611510204534730e-02 -6.0563915997449659e-03 3.7615662632128361e-03  9.2883641562004737e-02 -5.5896351729570713e-03 3.4778851914182393e-03  9.3240684073129174e-02 -5.0161957620511637e-03 3.4128128589744366e-03  9.1909957434217093e-02 -6.1705853075038584e-03 4.1180303984607999e-03  9.2141146917704003e-02 -5.7498534283972405e-03 3.8590668017300499e-03  9.2539296184077316e-02 -5.1555134657730100e-03 3.8030892485993949e-03  9.1200935784977677e-02 -6.2726195309542061e-03 4.4762633940199194e-03  8.6795338331229321e-02 -1.4759138829871654e-02 7.3608777975213277e-03  8.5989620538859238e-02 -1.4731704808786836e-02 7.5232694925713578e-03  8.5204646304805898e-02 -1.4739745839946866e-02 7.6944230050877771e-03  9.7134210903216334e-02 -5.2641214187492038e-03 1.8814749998653905e-03  9.8099010361279437e-02 -3.6894306308373338e-03 1.1496002164428744e-03  9.7219973888581807e-02 -3.7830457036314167e-03 1.3352476981894135e-03  9.6187613852958584e-02 -5.3485075998695505e-03 2.0755059647192937e-03  9.5319744398089726e-02 -5.4756651362784488e-03 2.2978796623361521e-03  9.6438560907496945e-02 -3.9383133120997295e-03 1.5683896845776041e-03  9.4508712958057128e-02 -5.6403426858757490e-03 2.5559377583424863e-03  9.5716186685305599e-02 -4.1340694491081697e-03 1.8452125976296597e-03  9.3710893774117510e-02 -5.8223043069967218e-03 2.8490574219307918e-03  9.5010060805993723e-02 -4.3547645148231855e-03 2.1690998215074565e-03  9.4300071509024572e-02 -4.5968864292624751e-03 2.5383403032476241e-03  9.2903850877274735e-02 -6.0155952445934864e-03 3.1788579204004362e-03  9.3560100949731995e-02 -4.8732891721612343e-03 2.9659154699970191e-03  9.2052943933865469e-02 -6.2009973015331047e-03 3.5353113758184629e-03  8.9816316498020521e-02 -1.2187403034273661e-02 5.8493600405987731e-03  8.8987084907653308e-02 -1.2166083329628870e-02 6.0578240470648007e-03  8.8174091063635524e-02 -1.2185663858975725e-02 6.2723876521010268e-03  8.7373364014359162e-02 -1.2225418111121789e-02 6.4942493912793844e-03  8.6581277690149172e-02 -1.2272082137085551e-02 6.7260093058664986e-03  8.5795015678919812e-02 -1.2316411006165930e-02 6.9730346814546561e-03  8.5011649150069299e-02 -1.2350493647100703e-02 7.2424996475731552e-03  9.8502654682813232e-02 -2.3076446297406799e-03 5.2010101868625092e-04  9.8611333329852807e-02 -2.4830655482687906e-03 5.6340585572559542e-04  9.7632564242873712e-02 -3.5954873525236987e-03 1.2837703258607586e-03  9.6848360639695708e-02 -3.6745524850228676e-03 1.4944484481182589e-03  9.7849983039727750e-02 -2.5870989689573739e-03 7.7203214648186133e-04  9.7810667077214419e-02 -2.3943885718986776e-03 7.3891709642416625e-04  9.7226743443065963e-02 -2.5384473593536411e-03 1.0213683138959281e-03  9.7196837624724947e-02 -2.7576572818768033e-03 1.0365145592548006e-03  9.6158586680324301e-02 -3.7978644472316850e-03 1.7556990569736438e-03  9.6593954515654279e-02 -2.9641145671993733e-03 1.3617896077729136e-03  9.6684692473089529e-02 -2.7021515632072186e-03 1.3652312144576345e-03  9.5517473194081812e-02 -3.9397841620807473e-03 2.0633333895438192e-03  9.6005472467770511e-02 -3.1979745694928462e-03 1.7438800463301114e-03  9.6161631119638546e-02 -2.8863996492367290e-03 1.7647186966974254e-03  9.4895784631696595e-02 -4.0959847877260706e-03 2.4148614277081063e-03  9.5640642554082680e-02 -3.0926570426971214e-03 2.2158815515232930e-03  9.5417827910043995e-02 -3.4610400107553600e-03 2.1800453015509433e-03  9.4273387309739401e-02 -4.2702568207814706e-03 2.8072633797368097e-03  9.5117858286702855e-02 -3.3364222884960824e-03 2.7264794882791905e-03  9.4835316555198765e-02 -3.7627189914726709e-03 2.6798165572276727e-03  9.3618649257327283e-02 -4.4758767390530143e-03 3.2468826592037727e-03  8.1674602883869241e-02 -1.3877771634989395e-02 9.6827486289576981e-03  8.2996415358594006e-02 -1.3325806812716759e-02 8.6939456725592910e-03  8.3173439667744958e-02 -1.2458459718891007e-02 9.1167365812642280e-03  8.3857348078758095e-02 -1.2402347808398330e-02 8.8801396758236076e-03  8.3719449622427181e-02 -1.3275678089528587e-02 8.4741939487147280e-03  8.0982959874777175e-02 -1.3953822135679736e-02 9.8981350966459644e-03  8.2274098695566941e-02 -1.3389965975219093e-02 8.9289482925897640e-03  8.2505243096886768e-02 -1.2525428985730456e-02 9.3416400999116155e-03  8.4033747497647360e-02 -1.0885181810822382e-02 1.0229085293762156e-02  8.4856088899784271e-02 -1.0715875825383629e-02 9.2104500418463148e-03  8.5556038352843436e-02 -9.6950935745210645e-03 9.3490384262346574e-03  8.5455829574527492e-02 -1.0712342874927845e-02 8.9637927335961542e-03  8.6086083713102876e-02 -9.7369465415575781e-03 9.1096462933543398e-03  8.3528456285728858e-02 -1.0853550658869596e-02 1.0458122244542879e-02  8.4258000254121598e-02 -1.0725827662154835e-02 9.4425146280139750e-03  8.5022154808333306e-02 -9.6605879380694901e-03 9.5672349719001740e-03  8.3036304289811388e-02 -1.0834238421806157e-02 1.0651853593234929e-02  8.3656032571148523e-02 -1.0746451561706427e-02 9.6501130992825528e-03  8.4463905031787967e-02 -9.6390294998711917e-03 9.7517000809494749e-03  8.2124967411337971e-02 -1.2888018164710462e-02 1.0087647714982073e-02  8.1500031781229901e-02 -1.2943522942809982e-02 1.0312480317196102e-02  8.2668307797924029e-02 -1.2011810188461768e-02 1.0335629435242581e-02  8.2109287042356788e-02 -1.2041216919950647e-02 1.0554014796292263e-02  9.9595585118897878e-02 -9.9839684000630814e-04 -2.2604669631418948e-04  9.9026991285912969e-02 -2.0826533207373168e-03 3.4108172857626954e-04  9.9305618913426083e-02 -1.2749559835134158e-03 -1.1274451162871524e-04  9.8690876958436549e-02 -1.3824475167162765e-03 8.5836058121832728e-05  9.8265936392527453e-02 -2.1977546715318571e-03 5.2291675469672569e-04  9.8982021188243077e-02 -1.0928430858247839e-03 -6.1352821992504612e-05  9.8194307249701199e-02 -1.5675257729980726e-03 3.6722225383175943e-04  9.7609091976057452e-02 -2.3826848644800148e-03 7.7137100316329826e-04  9.8489161195257802e-02 -1.2816556867100443e-03 2.0200077438233623e-04  9.7736857645232045e-02 -1.8083330317890574e-03 7.3215432078568084e-04  9.7015660393849720e-02 -2.6288988082453367e-03 1.0813461752591581e-03  9.8048066966468131e-02 -1.5558361669792918e-03 5.4570888758508800e-04  9.7275638671624295e-02 -2.0927600513773572e-03 1.1685059636858594e-03  9.6427827452033169e-02 -2.9135691979397102e-03 1.4546690510725182e-03  9.7589937958314346e-02 -1.8837100842339794e-03 9.6109315814683568e-04  9.6800696614728066e-02 -2.4179837640876272e-03 1.6623152192696685e-03  9.5829741805692065e-02 -3.2372254329985375e-03 1.8830576420381892e-03  9.7100092983775865e-02 -2.2609401626888493e-03 1.4328246468584748e-03  9.6337052467808187e-02 -2.7771320612031297e-03 2.1951102740844488e-03  9.5222105373186997e-02 -3.6071901873877370e-03 2.3660279161468139e-03  9.6605919925474834e-02 -2.7040303027132157e-03 1.9468256029199864e-03  9.0012868575239380e-02 -1.5041379167054602e-02 5.3155183577292186e-03  8.8423551677385206e-02 -1.6194048041613573e-02 6.0743270978367162e-03  8.9999186860608468e-02 -1.4666362842608109e-02 5.4625926243217979e-03  8.9060945704382291e-02 -1.4775482094858763e-02 5.7604116958850458e-03  8.7566724959613346e-02 -1.6306828792939008e-02 6.3685997151477968e-03  8.9005784605387953e-02 -1.5196297953706755e-02 5.5808166815139500e-03  8.6714932554179031e-02 -1.6423390497029119e-02 6.5960999833010181e-03  8.8037569633237889e-02 -1.5330477129511551e-02 5.7662125459620947e-03  8.8136877861957605e-02 -1.4890473190462040e-02 5.9925604309430790e-03  8.5879729047652550e-02 -1.6530039231548228e-02 6.7761921960656302e-03  8.7101490949276272e-02 -1.5440968728800157e-02 5.9018230178643875e-03  8.7236213868494894e-02 -1.4996852438133246e-02 6.1799319614177402e-03  8.5066534241363442e-02 -1.6613662767593258e-02 6.9237086284934680e-03  8.6188132448639376e-02 -1.5519405249394680e-02 6.0016623858486929e-03  8.6357867747548986e-02 -1.5080193416630343e-02 6.3376506461727804e-03  8.4279471266762884e-02 -1.6660055243069440e-02 7.0487060301342172e-03  8.5289236692356787e-02 -1.5553429621843291e-02 6.0698372930162161e-03  8.5501062191425309e-02 -1.5125323456965815e-02 6.4747248793057223e-03  8.3525133708374277e-02 -1.6652499418956895e-02 7.1572334367362512e-03  8.4669111720374626e-02 -1.5112535690593846e-02 6.5959449658910558e-03  9.3311901021324070e-02 -1.0195181262762230e-02 4.0752034110828825e-03  9.1852024096498397e-02 -1.1769344957883758e-02 4.7799555674908588e-03  9.2814669192157792e-02 -1.0008432026560503e-02 4.3076226453582795e-03  9.1920433049608313e-02 -1.0031421885351060e-02 4.5691791288418916e-03  9.0923061434365335e-02 -1.1803182680377654e-02 5.0655428804620428e-03  9.2345135213213150e-02 -1.0241160769362920e-02 4.3475089525096457e-03  9.1047000196760999e-02 -1.0089490845957965e-02 4.8201879313148968e-03  9.0016111032106466e-02 -1.1869891582147473e-02 5.3178346157359046e-03  9.1416998105737945e-02 -1.0318273310174667e-02 4.5943323316815160e-03  9.0195633790904950e-02 -1.0166052999561619e-02 5.0699868229292320e-03  8.9129970616439735e-02 -1.1948199583960898e-02 5.5515449775315777e-03  9.0517620649873606e-02 -1.0408256627803144e-02 4.8311795571651930e-03  8.9358072521286025e-02 -1.0246055244825613e-02 5.3255492814702522e-03  8.8259976222014855e-02 -1.2021303597901562e-02 5.7779763674534329e-03  8.9633162831126878e-02 -1.0496154852529306e-02 5.0678391454543640e-03  8.8527401413993137e-02 -1.0314969660196611e-02 5.5928665732580774e-03  8.7401037783632507e-02 -1.2072269604862400e-02 6.0053972956202574e-03  8.8748927830478511e-02 -1.0565332127190246e-02 5.3102611031849789e-03  8.7696294455108528e-02 -1.0356761343409774e-02 5.8790612778256953e-03  8.6548293796624889e-02 -1.2082988371432089e-02 6.2399356796973464e-03  8.7851073119890696e-02 -1.0593220131530653e-02 5.5557916908133206e-03  8.3424569434106130e-02 -1.7576482906477259e-02 8.1794487001505302e-03  8.2695446102572831e-02 -1.7635192285993660e-02 8.3456940643595514e-03  8.1978392753884327e-02 -1.7676234424844076e-02 8.5127577368848614e-03  8.1270795441615210e-02 -1.7689260066445434e-02 8.6971173308451437e-03  9.9568003220674176e-02 -1.2170793637039641e-03 -3.6006526911905066e-05  9.8888673244435829e-02 -1.3217524667689384e-03 1.0470891382207717e-04  9.8313230275832539e-02 -1.5184090622827773e-03 3.4310242494149624e-04  9.7807130848020410e-02 -1.8097391885656712e-03 6.5263545390389672e-04  9.7287642457943427e-02 -2.1603565404481706e-03 1.0289543808780185e-03  9.6728009507087390e-02 -2.5645742705798923e-03 1.4631337339367392e-03  9.6140853676395188e-02 -3.0334842528027595e-03 1.9547647579281190e-03  8.5405249233020120e-02 -1.1400819754383744e-02 7.9183218885809786e-03  8.4704243645468136e-02 -1.1454523783690690e-02 8.1646783304249251e-03  8.4008601640899155e-02 -1.1520716397152936e-02 8.4164052027833232e-03  8.9038296301917882e-02 -8.9936502883590768e-03 7.5097413112744822e-03  8.7341689686775650e-02 -1.0666180068733010e-02 8.1668093576746995e-03  8.7766508662330059e-02 -9.8077528188705854e-03 8.2793732495261580e-03  8.8409841717293977e-02 -9.0156940293417351e-03 7.7711853122600085e-03  8.6685400086314993e-02 -1.0695216436626060e-02 8.4395704108047691e-03  8.7194142812133904e-02 -9.8211654481301387e-03 8.5778188293029693e-03  8.7815467727389809e-02 -9.0087978490459904e-03 8.0294276309528633e-03  8.6063258187498992e-02 -1.0708962998299328e-02 8.7066323649682264e-03  8.6625951672528206e-02 -9.7805951648541421e-03 8.8526416426751558e-03  8.7241601396685298e-02 -8.9881591610339907e-03 8.2801913680140195e-03  8.6675123685964903e-02 -8.9661618230739808e-03 8.5205157753931275e-03  8.6100071409959622e-02 -8.9493867651670410e-03 8.7470256528728533e-03  8.5494748493722392e-02 -8.9441866440753501e-03 8.9543754921827361e-03  9.6599599837077832e-02 -5.5326385184543171e-03 2.1334681358473584e-03  9.5695231709050477e-02 -5.6120337829092190e-03 2.3511968253677358e-03  9.4866954654681757e-02 -5.7313626431658819e-03 2.5954374380246625e-03  9.4081310119529193e-02 -5.8715235163760721e-03 2.8707657078033068e-03  9.3311903554921360e-02 -6.0264582796067138e-03 3.1776463295699040e-03  9.2536980590063572e-02 -6.1914257742163546e-03 3.5148192570792231e-03  9.1731151217608192e-02 -6.3655638506368139e-03 3.8819335986919677e-03  9.9165790737407250e-02 -1.3459713460887148e-03 -9.0200432176861122e-05  9.8579870619985188e-02 -1.4408467849113518e-03 1.2731478561340862e-04  9.8104601165033389e-02 -1.6123403988531025e-03 4.2382709534768287e-04  9.76612