<?xml version="1.0"?>
<VTKFile type="UnstructuredGrid"  version="0.1"  >
<UnstructuredGrid>
<Piece  NumberOfPoints="932" NumberOfCells="3950">
<Points>
<DataArray  type="Float64"  NumberOfComponents="3"  format="ascii">6.918415688494489 1.342291281204931 1.78675641445025  6.870668226604906 1.304320388270824 1.875220355999042  6.814789887347318 1.353323796106977 1.762682499087119  6.816369599106427 1.29268514894722 1.734022409945216  6.874024211251125 1.240290755089247 1.853793687887143  6.918397721127083 1.280534828936567 1.760772854251563  6.877208014272616 1.176370813957901 1.832341795267029  6.918102701924384 1.21888531108611 1.734763703683339  6.81772493046383 1.23221632309025 1.705323681235388  6.917690533370862 1.157322920943074 1.708770125492908  6.880307690830349 1.112559998861172 1.810900631994961  6.818984036203301 1.171855305672971 1.676635360219514  6.917262798780683 1.095834157524221 1.682813271224162  6.883407406952685 1.048839900364557 1.789493327082652  6.820244221321617 1.111580839328489 1.647987814709853  6.916913545023544 1.034398309214658 1.656905236708547  6.886594258627589 0.9852113428875742 1.768144119153902  6.821617369919287 1.051369784790754 1.619402593573405  6.916759417494692 0.9729773418505598 1.63103656591355  6.889936372629981 0.9216168395391917 1.746833298618195  6.823247104645914 0.9912132699966306 1.59089701585272  6.255082385731794 1.566473477337143 1.435630949835534  6.275002010296897 1.690663204916957 1.353010448185869  6.376775037871307 1.635959540067177 1.40554488535917  6.38416800755081 1.600744863658552 1.356028033474773  6.283996371635302 1.658002326306654 1.303133492298425  6.293197301815034 1.625421749358413 1.253431246722047  6.27364656475822 1.491143008196747 1.341452511140558  6.391690980661442 1.565669861567606 1.306706433267877  6.302550088074621 1.592960204761974 1.20383678762928  6.283210235156846 1.453693452495211 1.294506408250718  6.399336415039286 1.530731787135682 1.257497343118414  6.292796321852919 1.416325957935642 1.24766772937297  6.311933057863657 1.560592170862288 1.154379353223212  6.407022133606283 1.495875807173152 1.208404450824032  6.302267184542239 1.379024669902349 1.20097314643551  6.321220412273778 1.528273037724109 1.105053413924843  6.414662304536792 1.461098253737708 1.159494981803283  6.311425656802648 1.341749469512329 1.154456080600428  6.330190793608695 1.496002735422186 1.055911422946877  6.422106674469466 1.426414732375662 1.110836138668561  6.370142224470033 1.640945212756055 0.9749623108460997  6.256690422743075 1.710775936506654 0.9200054559464246  6.213077794410689 1.578873326829883 0.9850190553148758  6.362021348657262 1.670975207165629 1.025143868334318  6.399407468720925 1.371400472671183 1.668192085021196  6.27736734547757 1.405805006640331 1.593518731302049  6.394446678056792 1.448897459389938 1.56391136550219  6.402013722532634 1.40373104649299 1.520852134123718  6.285978070269195 1.358611652002643 1.553680669606272  6.407849726845731 1.320234655256392 1.632077100934915  6.409760658291209 1.358806379837016 1.477826920773256  6.294822097268161 1.311634010218779 1.51384348155154  6.416468258561867 1.269296709881409 1.595933866714303  6.417605886042821 1.314045520947972 1.434869309217113  6.303789443905083 1.264805913064749 1.474060720876272  6.42518716073932 1.218518896289959 1.559816866751533  6.425490120852493 1.269396823069324 1.392019954590381  6.312781586976456 1.218073647939037 1.434358367525118  6.433941144578889 1.167848716526569 1.523768504598063  6.433356168059331 1.224848159167062 1.349346337155369  6.321687545730988 1.17141364609113 1.394783022404374  6.442664008860942 1.117271930636397 1.487843956384546  6.441008778484916 1.180380721880215 1.306905054308686  6.330363643918145 1.124824675385418 1.355402356874943  6.451234115683985 1.066816277539306 1.452131741925589  6.727576583872723 1.305239663665317 1.847348825110546  6.731106801930526 1.243665921970429 1.823040414571729  6.734479226638895 1.182254893531887 1.798680531306569  6.737799335166249 1.120965935520514 1.774325882183002  6.741126975888909 1.059786201367574 1.750008289001055  6.744546423011216 0.998737179689035 1.725761980979184  6.748322748292011 0.9378039284172851 1.701632684428622  6.488718910873065 1.587031610085069 1.457830120654309  6.485178574600392 1.679346238605477 1.389133158109627  6.489947027474532 1.645225150307146 1.338025736212638  6.493943502059325 1.548026159965623 1.409514116843837  6.494743916325944 1.611217774290675 1.287121471785315  6.499208887081362 1.509196829518136 1.361340872613457  6.499602099790047 1.577337277843625 1.236364809485948  6.504542982735749 1.470517249882245 1.313280284143344  6.504497241593102 1.543546869345791 1.185752532549311  6.509916149499253 1.431932193799958 1.265345439250489  6.509413397948987 1.509843036672293 1.135324766579526  6.51531734986238 1.393432892013745 1.217580148742847  6.514303000845648 1.476247577918677 1.085173991364418  6.520719048040111 1.355059337615398 1.170093850358279  6.919935994666382 1.656715491140761 1.388551807442606  6.813700877555132 1.654982659833158 1.408156181718905  6.889247436518016 1.735928278239675 1.3364980763142  6.879775204946228 1.700026409352153 1.285130531607466  6.808511145664947 1.616169086572886 1.357029077819834  6.910788164735791 1.616842868082017 1.339113455399254  6.86995585666985 1.664189071248751 1.233954469553713  6.803050548352581 1.577485643239917 1.306058059375796  6.901274562967308 1.57706535945285 1.289846408042878  6.859932933639044 1.628393613285344 1.182950988509245  6.797443661823501 1.538875282517544 1.255249298023814  6.891577411785214 1.537335296372076 1.240725367155564  6.849885160583908 1.592645859249751 1.132072346269014  6.791832967183504 1.50032516514365 1.204575474962905  6.881867432316049 1.497656482797607 1.19171913234838  6.83999734942337 1.556966288721719 1.08129983441048  6.7863696400936 1.461848970954788 1.154023354517917  6.872314601660951 1.458056735027089 1.142815434282112  6.830533425397327 1.521400758693508 1.030619078593029  6.781201416811379 1.423477908509344 1.103624615550264  6.863170346728377 1.418580169244189 1.094022137944291  6.292290217831377 1.318900130748111 1.71719331846123  6.302735243347526 1.266976336830907 1.683214262507399  6.210443347371302 1.438601153303761 1.071877960090587  6.384673550882078 1.540588801084552 1.483063227413689  6.392280736055018 1.500712678588593 1.436276639453335  6.400037445520433 1.4610538981412 1.389658506749403  6.407912258570033 1.421541023976316 1.343117771097263  6.415828046465719 1.382124133955607 1.296685901254784  6.423706963596663 1.342777577322626 1.250405634423109  6.431409676448158 1.303527792442964 1.204383198499023  6.778192244004611 1.769165336474852 1.331800305760797  6.771848788916561 1.733830838441158 1.279613342019775  6.765254797225357 1.698612932757307 1.227626555980954  6.758489261924598 1.663450053232139 1.175823716282997  6.751697532225162 1.628343488622229 1.12417539046443  6.745038174161222 1.593321989722544 1.072671393691994  6.738756240015112 1.55842204085347 1.021315117222281  6.809348647138408 1.259988516005918 2.53309452583414  6.677060894674963 1.251088968878199 2.587808869884199  6.732919262886483 1.236984642520964 2.455451438705239  6.742537990473846 1.173968907782533 2.465680971027068  6.687252764545717 1.190577689369599 2.605190546968829  6.818412007433365 1.19740842793528 2.547513086384563  6.752174070868327 1.111006367166735 2.47585572232122  6.320169251675521 1.82237575064023 1.278557694399314  6.389559412229069 1.726885868870372 1.350311940624046  6.39612423286353 1.694739601378645 1.299324214090819  6.328343923542668 1.79196847506291 1.227537339480045  6.336689670173165 1.761587406334808 1.176697570520928  6.402799812808304 1.662703404197053 1.24859875529472  6.409573588937445 1.630768283356456 1.198008589655448  6.345136121506139 1.731307385250476 1.126043312971966  6.416386401229776 1.598918426274916 1.147551108571288  6.353616563716107 1.701102539070005 1.075515376586734  6.423160759308437 1.567134859263853 1.097241411645095  6.429765699095309 1.535444526645679 1.047142899129221  7.249902970073125 1.282343144047316 2.162375927627457  7.249119055532 1.281099384657862 2.263516337704536  7.132164775588601 1.269730520906668 2.238052850099848  7.138541266854752 1.204913883875676 2.23864529113532  7.255220423605288 1.217140932188291 2.265930945714035  7.255918065039777 1.218156169174511 2.160378267751229  7.144834179725774 1.140155269423187 2.239256989777027  7.261220093623837 1.153232130400486 2.268394845242873  7.261823737498879 1.153990096783835 2.158431324738157  7.151067910851202 1.075440612461882 2.239881005536365  7.267153845558549 1.089362990344641 2.270874379728534  7.267654094713264 1.089852723699428 2.156504270607675  7.157258182191017 1.010768271965425 2.240509550829115  7.273041406207619 1.025532819663949 2.273359773125784  7.273444085641991 1.025748775329087 2.154586487025029  7.163411140567601 0.9461439396753286 2.241133969118847  7.278898622855486 0.9617523074792121 2.275842901273426  7.279231632893699 0.9616849991363243 2.152669723916386  7.169516536320951 0.881581876781856 2.241744525693525  7.284767548444566 0.8980404170826646 2.27829671036171  7.285053694528301 0.8976786367117764 2.1507344681058  7.152065609144061 1.276375610404425 2.095350398894925  7.156563074517218 1.211395907729719 2.08905447514866  7.160899415981438 1.1464572010299 2.082790058149781  7.165148476712028 1.08156152706978 2.076542767242397  7.169356530695207 1.016709628215358 2.070305771305074  7.173564122008955 0.951916716014265 2.064074547021268  7.177860935530774 0.8872011716241515 2.057841418905168  7.20171463712837 1.285402893763407 2.35799098593728  7.208049120836899 1.221858378789534 2.364395505738853  7.214310323970917 1.158357843813938 2.370849911129554  7.220519031127771 1.094898911687455 2.377316016779236  7.226682889858678 1.03147325803308 2.383783923990276  7.232805368767949 0.9680768670147351 2.390243348902491  7.238911718659836 0.904723704703
[...]
<PointData  Vectors="f_16"> 
<DataArray  type="Float64"  Name="f_16"  NumberOfComponents="3" format="ascii">4.8475504544067870e-02 -1.6804715805451075e-02 4.8472013772117494e-03  4.8511772459199964e-02 -1.6392059984218402e-02 5.6528299289430768e-03  4.9214817688662926e-02 -1.6816356754083776e-02 4.8878565386825581e-03  4.9152661233311731e-02 -1.7102872160495677e-02 5.2465506884541357e-03  4.8493566425547412e-02 -1.6627412603398804e-02 5.9906998876252176e-03  4.8404380613982202e-02 -1.7091024602405587e-02 5.2064689999893332e-03  4.8517604677868059e-02 -1.6907254138376068e-02 6.3004250578174281e-03  4.8396161575927667e-02 -1.7411146543288503e-02 5.5396475086263155e-03  4.9144311917202047e-02 -1.7436689218144161e-02 5.5702167592106312e-03  4.8416648777765567e-02 -1.7763034870302046e-02 5.8537212360621838e-03  4.8563181227455267e-02 -1.7226894233133793e-02 6.5901992069958412e-03  4.9162092740609217e-02 -1.7810594010600662e-02 5.8689926483540275e-03  4.8439966840888950e-02 -1.8143538568156009e-02 6.1556692189399468e-03  4.8607901070732706e-02 -1.7583863561848056e-02 6.8683997418499789e-03  4.9178084170102700e-02 -1.8219745750421276e-02 6.1500219533742757e-03  4.8444788018823889e-02 -1.8548557813804666e-02 6.4542653431289400e-03  4.8632344876133694e-02 -1.7970562887887648e-02 7.1442127731174854e-03  4.9163437233244942e-02 -1.8659283700432395e-02 6.4212362612006482e-03  4.8411802157946479e-02 -1.8968761562895654e-02 6.7566774976480625e-03  4.8628169066352332e-02 -1.8355504475080428e-02 7.4378489674467559e-03  4.9093870276910860e-02 -1.9131068378444166e-02 6.6891745885265860e-03  5.2325349243386221e-02 -1.8939213078062470e-02 2.2527582996540582e-03  5.2181433674719960e-02 -1.9267587809285100e-02 1.0179892029596343e-03  5.1777455413167382e-02 -1.8682088027218324e-02 1.8616228027004893e-03  5.1965010234067084e-02 -1.9129665755018566e-02 2.1149764457722470e-03  5.2478511571395284e-02 -1.9728463816241618e-02 1.2477082486142875e-03  5.2724881598351925e-02 -2.0213696940784519e-02 1.4217418646783923e-03  5.2894040002139507e-02 -1.9841905079977889e-02 2.7469374370225285e-03  5.2127341718445297e-02 -1.9614392651251998e-02 2.3054783995412925e-03  5.2946823807846682e-02 -2.0723329105163241e-02 1.5517229840726846e-03  5.3133359455155071e-02 -2.0340788141494551e-02 2.9236864169198411e-03  5.2272518961348075e-02 -2.0131946141654186e-02 2.4471976539968340e-03  5.3371489764954469e-02 -2.0869653857083593e-02 3.0619544579667951e-03  5.3166448444301566e-02 -2.1258168800013071e-02 1.6420593533731673e-03  5.2412433751061964e-02 -2.0681151963586948e-02 2.5413027966364036e-03  5.3633002444939605e-02 -2.1430234140169205e-02 3.1615514374766685e-03  5.3410548789552363e-02 -2.1822994923217778e-02 1.6912115938122621e-03  5.2560656995961137e-02 -2.1267419676031733e-02 2.5833341174994568e-03  5.3945681215987133e-02 -2.2023986812373230e-02 3.2212441677302458e-03  5.3716656458828609e-02 -2.2420076669969362e-02 1.6935395292321338e-03  5.2738420658305869e-02 -2.1893023681274652e-02 2.5634652886520003e-03  5.3218685728756758e-02 -2.2647309800646165e-02 3.0093975995593907e-04  5.4348021142078873e-02 -2.3278936697713002e-02 -7.6859924263097338e-04  5.4902635152976650e-02 -2.3224179532824456e-02 4.0729647956305959e-04  5.2957976498925224e-02 -2.2044919098898542e-02 3.3820621878172231e-04  5.1486393668156986e-02 -1.7474324566597844e-02 4.8378568150703790e-03  5.2193971810784959e-02 -1.8136607432001659e-02 4.1419344953288759e-03  5.1649179475076357e-02 -1.7931542992673379e-02 3.8969996035974463e-03  5.1826399252790194e-02 -1.8300567763097384e-02 4.2001381911269658e-03  5.2466699064151065e-02 -1.8479610835885864e-02 4.4628693010344694e-03  5.1670477275160803e-02 -1.7765338848843817e-02 5.1641797023247588e-03  5.1986190756068161e-02 -1.8726635322849652e-02 4.4532584688487383e-03  5.2711146466324001e-02 -1.8876506822790941e-02 4.7403557964880759e-03  5.1837840325224302e-02 -1.8117955003466305e-02 5.4506158788431769e-03  5.2135424561934457e-02 -1.9199346678915544e-02 4.6635037548494861e-03  5.2939611665289731e-02 -1.9316230226383419e-02 4.9829798239852440e-03  5.1995044842279778e-02 -1.8521912308248473e-02 5.7017791030943669e-03  5.2277767288704959e-02 -1.9715453852209006e-02 4.8330250343470681e-03  5.3167435781309148e-02 -1.9794068189477952e-02 5.1939926048101877e-03  5.2148039910457612e-02 -1.8972425547031293e-02 5.9211035461039048e-03  5.2418404120437842e-02 -2.0274381354926572e-02 4.9556594521887719e-03  5.3411915196058452e-02 -2.0310664732712872e-02 5.3739500244919447e-03  5.2303889130392557e-02 -1.9471634878017903e-02 6.1071914015555593e-03  5.2573990696438817e-02 -2.0869791561506666e-02 5.0440782672984737e-03  5.3685462603933400e-02 -2.0872661306741914e-02 5.5160492423522202e-03  5.2476165823004010e-02 -2.0027985517242053e-02 6.2572876909367872e-03  4.9479888100446061e-02 -1.6451482042073494e-02 5.7918216733145169e-03  4.9493449384007543e-02 -1.6674690216499671e-02 6.1128917674439873e-03  4.9551330427408911e-02 -1.6955093925520474e-02 6.4073842535967811e-03  4.9627459598430498e-02 -1.7284008761231501e-02 6.6807127428691751e-03  4.9698801169823760e-02 -1.7657656879523882e-02 6.9362827823061853e-03  4.9736223438011616e-02 -1.8075097035290415e-02 7.1769663793532145e-03  4.9683976406220208e-02 -1.8519748532472586e-02 7.4106913219144158e-03  5.1356744881666666e-02 -1.8188980229535908e-02 2.4813180037278064e-03  5.1411064668503328e-02 -1.8514634823394199e-02 1.5213875950487068e-03  5.1474409803634845e-02 -1.8977958207867688e-02 1.7598178292008546e-03  5.1427525290009227e-02 -1.8623396314698965e-02 2.7584682102609688e-03  5.1534996745895428e-02 -1.9478112541338365e-02 1.9370484781218709e-03  5.1496432694746408e-02 -1.9102882816881342e-02 2.9763126962305802e-03  5.1590639042376422e-02 -2.0010339811882778e-02 2.0624489406797885e-03  5.1561182757339952e-02 -1.9619757431687843e-02 3.1438052593892492e-03  5.1638164517411093e-02 -2.0574996119736549e-02 2.1383254589193491e-03  5.1617419426111769e-02 -2.0171887905069297e-02 3.2643128870113868e-03  5.1674483465336075e-02 -2.1176422850252466e-02 2.1552703877046561e-03  5.1659535924256393e-02 -2.0762817451717906e-02 3.3308092338503494e-03  5.1697841316153272e-02 -2.1817617889899790e-02 2.0965369845160398e-03  5.1683060389448983e-02 -2.1406798724561457e-02 3.3266002256621945e-03  4.9582581753025802e-02 -1.8716861872876054e-02 3.7216463251600552e-04  5.0188778623362261e-02 -1.8419000144696957e-02 9.3412711454063640e-04  4.9861224707214692e-02 -1.8908541451114168e-02 -3.8297705021319791e-04  4.9538734840668244e-02 -1.9413446656724294e-02 -1.3509265772461117e-04  4.9933866945643383e-02 -1.8919146058432541e-02 1.2059513761461160e-03  4.9280799940320294e-02 -1.9217417300343351e-02 6.5165107334018337e-04  4.9308261631375465e-02 -1.9938040622346696e-02 7.7569989784435174e-05  4.9749605727773004e-02 -1.9447967166347526e-02 1.4318660407994937e-03  4.9072818953426911e-02 -1.9736229061408470e-02 9.0147935914884831e-04  4.9129701185338527e-02 -2.0471824552037134e-02 2.6391187214346842e-04  4.9606728919833545e-02 -1.9996066236280641e-02 1.6210731768912744e-03  4.8915757033215081e-02 -2.0263761382135839e-02 1.1275766162453533e-03  4.8956427769532081e-02 -2.1017289114210209e-02 4.3333201740323307e-04  4.9464016817645243e-02 -2.0564281394164129e-02 1.7820791050720125e-03  4.8763166805075350e-02 -2.0802685548670118e-02 1.3389602397780994e-03  4.8738739108708483e-02 -2.1580150631920474e-02 5.9019994013372577e-04  4.9281177289781618e-02 -2.1155766184441434e-02 1.9193000887750800e-03  4.8569951412139392e-02 -2.1357736109633100e-02 1.5406216969595494e-03  4.8418258554367113e-02 -2.2168510369319275e-02 7.3249625741677996e-04  4.9029169908472899e-02 -2.1781734669660123e-02 2.0239487204741797e-03  4.8280074940452805e-02 -2.1931815503367962e-02 1.7341942916100856e-03  5.2000525754066121e-02 -1.7584428809578202e-02 5.2684820903990516e-03  5.2262031429183238e-02 -1.7848145443041138e-02 5.5876433462954695e-03  5.4965999050017492e-02 -2.2826631638036221e-02 1.8931684455552066e-03  5.1722666904910460e-02 -1.8291052679323471e-02 2.8828179931026736e-03  5.1905629941687695e-02 -1.8707411114339236e-02 3.1698377286550608e-03  5.2065661950675170e-02 -1.9166542969470336e-02 3.3988765012068073e-03  5.2210474181456863e-02 -1.9664234605895239e-02 3.5798588250799037e-03  5.2348945581557678e-02 -2.0198633207246214e-02 3.7167532023089016e-03  5.2491638615632906e-02 -2.0772264961089554e-02 3.8052184061179244e-03  5.2659581315001293e-02 -2.1398743856778174e-02 3.8297104027780757e-03  5.0465125461092129e-02 -1.8748298888519928e-02 -1.5614796132497783e-04  5.0202093850162333e-02 -1.9242573857787919e-02 9.1106174011772851e-05  5.0011398821459510e-02 -1.9766432369435011e-02 2.9148690050630725e-04  4.9862132384356619e-02 -2.0309673317020580e-02 4.5230882037583563e-04  4.9715286875647274e-02 -2.0874064794704529e-02 5.7990005526550327e-04  4.9526063054844721e-02 -2.1463468101648155e-02 6.7446916092150238e-04  4.9240903084592690e-02 -2.2075771365057763e-02 7.3596893341627747e-04  4.7085603464580954e-02 -1.4907776036208005e-02 9.8183966517129198e-03  4.7934963548178271e-02 -1.5164418664559701e-02 1.0326693368781238e-02  4.7827438965901803e-02 -1.5090139955731654e-02 9.4689363970464017e-03  4.8034634492690173e-02 -1.5140229350596193e-02 9.4965157510588233e-03  4.8181568015268711e-02 -1.5237351097035601e-02 1.0279492997047899e-02  4.7302857963524181e-02 -1.4977710547943859e-02 9.8143788192451009e-03  4.8248295263536682e-02 -1.5247489219259861e-02 9.5419358371818946e-03  5.1949300133524570e-02 -1.9495115506059646e-02 -1.5617318923245692e-04  5.1713599915743959e-02 -1.8902988839792825e-02 9.5830235045722754e-04  5.1887727171386323e-02 -1.9366321125302521e-02 1.1858809398959107e-03  5.2201488983150586e-02 -1.9960584385110530e-02 4.1262297331252690e-05  5.2403372001874747e-02 -2.0444610545831833e-02 1.8319187182275597e-04  5.2035934238585824e-02 -1.9858583896116791e-02 1.3505475781768869e-03  5.2168145598878321e-02 -2.0378152103327257e-02 1.4657839239292591e-03  5.2583475217470463e-02 -2.0950461328811336e-02 2.7709793778028991e-04  5.2295307677306821e-02 -2.0926757036840840e-02 1.5346157572518183e-03  5.2759269713504163e-02 -2.1481602462707802e-02 3.2942588443841291e-04  5.2432224029760346e-02 -2.1509313043837977e-02 1.5523675747327612e-03  5.2596456885444488e-02 -2.2140376937462899e-02 1.4980580389086060e-03  4.4785840786547758e-02 -1.5417613145826679e-02 6.8959872169957366e-03  4.4504707456370432e-02 -1.5057986247117603e-02 7.5563522281988102e-03  4.5504454425028956e-02 -1.5149175126775868e-02 7.5525245233668695e-03  4.5584991061954599e-02 -1.5249995134576182e-02 7.7578576830355395e-03  4.4585660210009148e-02 -1.5160166679262047e-02 7.7611565300571943e-03  4.4842628380795023e-02 -1.5549175858914134e-02 7.1538658308756735e-03  4.5691044670655420e-02 -1.5396097166125356e-02 7.9531145292192056e-03  4.4692598792478049e-02 -1.5304174182837997e-02 7.9496905435042561e-03  4.4927392379626681e-02 -1.5712782170655210e-02 7.3865605529918697e-03  4.5814039702946820e-02 -1.5578058569826149e-02 8.1420632169386508e-03  4.4817713075563426e-02 -1.5482510441513685e-02 8.1308471708058730e-03  4.5031463032604004e-02 -1.5904651563586548e-02 7.6070461591508627e-03  4.5950297634954972e-02 -1.5790031832587235e-02 8.3296474028231593e-03  4.4955593520854133e-02 -1.5691615495865851e-02 8.3122261634759956e-03  4.5146608105133323e-02 -1.6122128912046323e-02 7.8256373836713827e-03  4.6100504847388146e-02 -1.6030791327178519e-02 8.5183927405496213e-03  4.5099063124542649e-02 -1.5931190850196945e-02 8.5012332627940335e-03  4.5264275974979208e-02 -1.6364081182429692e-02 8.0520293412779127e-03  4.6251006360926959e-02 -1.6308911719391986e-02 8.7197612377665056e-03  4.5239253727630747e-02 -1.6195313727987333e-02 8.7069935107489740e-03  4.5378356863562334e-02 -1.6633573776876184e-02 8.2949437547617435e-03  4.5789598473715200e-02 -1.5651017515196850e-02 6.6050860397881533e-03  4.5829492585272850e-02 -1.5804337810296682e-02 6.8847470391516447e-03  4.5906424614032521e-02 -1.5988465867811177e-02 7.1420058425242065e-03  4.6004991950682535e-02 -1.6200546603690719e-02 7.3872253943550624e-03  4.6115011931669579e-02 -1.6438607409739663e-02 7.6294406930854219e-03  4.6227210355111077e-02 -1.6703337418929157e-02 7.8768449849282492e-03  4.6321873885173441e-02 -1.6989353695046720e-02 8.1370665132914754e-03  4.4599804881570185e-02 -1.4774020761904795e-02 8.1900450059294496e-03  4.4706694493992692e-02 -1.4857273712004574e-02 8.3443989970414089e-03  4.4838812174747368e-02 -1.4985886523547437e-02 8.4889976769287907e-03  4.4987145856601213e-02 -1.5153395782384874e-02 8.6324203127530804e-03  4.5150137913152810e-02 -1.5353210147389615e-02 8.7786339058037628e-03  4.5325011766059436e-02 -1.5583837769666086e-02 8.9303279374384099e-03  4.5481991986967452e-02 -1.5851399221501996e-02 9.1002917636748715e-03  4.5460810351821077e-02 -1.4806374615455083e-02 8.4465098414965179e-03  4.5590973012290377e-02 -1.4879587917458010e-02 8.5779389520887119e-03  4.5729891499646916e-02 -1.5007679691055417e-02 8.7057373538147170e-03  4.5879062580779693e-02 -1.5177768098798493e-02 8.8354153911884455e-03  4.6040479625859693e-02 -1.5381054836092737e-02 8.9687665128000294e-03  4.6221769535076992e-02 -1.5610684564482171e-02 9.1067267768436024e-03  4.6392678226019016e-02 -1.5867537542760202e-02 9.2645757474753218e-03  5.2081777261353275e-02 -1.8368321674784974e-02 3.3306776910717365e-03  5.2340304776957843e-02 -1.8761711266458182e-02 3.6270415815797159e-03  5.2569332394036890e-02 -1.9202611519973524e-02 3.8697207868759699e-03  5.2781909009025331e-02 -1.9682809812597183e-02 4.0709377828314439e-03  5.2992242542261182e-02 -2.0199129929202687e-02 4.2346463612396232e-03  5.3216171329275523e-02 -2.0751149957340294e-02 4.3587321076640753e-03  5.3471578531603642e-02 -2.1343580335527100e-02 4.4320585195260767e-03  5.2729884221237207e-02 -1.8784333760304164e-02 3.2694606313521703e-03  5.4199485639421049e-02 -2.1078807988830564e-02 4.4446411343740657e-03  5.4549137587265858e-02 -2.1632991782419991e-02 4.5826823571951452e-03  5.3017027792113876e-02 -2.2918527103252449e-02 -1.0955838231883675e-03  5.1890868529935963e-02 -2.2457210496520157e-02 -3.5159715542028628e-04  5.1225303529286538e-02 -1.8919007448487703e-02 -2.3408434922707607e-04  5.1530121319066070e-02 -1.9021318253790945e-02 1.5394044125990156e-04  5.1490186120183939e-02 -1.9252056549652473e-02 -6.5387795141614419e-04  5.1635896908534609e-02 -1.9491475980606143e-02 3.6707542283424165e-04  5.1193095729404850e-02 -1.9400765705656940e-02 -2.7471473716280261e-05  5.1581741934443981e-02 -1.9722893240870596e-02 -4.6759955520930628e-04  5.1724896125032636e-02 -1.9986201524577966e-02 5.1734791267323422e-04  5.1167782373325081e-02 -1.9905511159581699e-02 1.1761353417995888e-04  5.5289873304241233e-02 -2.2509188041063215e-02 3.2595306744969514e-03  4.9208743769094593e-02 -1.5767698843247274e-02 7.3465306838615399e-03  4.9242103764415901e-02 -1.5636049733699177e-02 7.9392177421192169e-03  4.9897726765144569e-02 -1.5956636451489852e-02 7.3926713156972313e-03  5.0049757782781056e-02 -1.6065522870766468e-02 7.6183980048924781e-03  4.9396284642446539e-02 -1.5708608178067050e-02 8.1209156951133343e-03  4.9324118631184161e-02 -1.5883812601501724e-02 7.5743147692945642e-03  5.0210015501174682e-02 -1.6242416286732252e-02 7.8333689618961706e-03  4.9555196895227104e-02 -1.5847655359517085e-02 8.2966771012790343e-03  4.9451782588336698e-02 -1.6064894526140249e-02 7.7838950639072934e-03  5.0371373088456579e-02 -1.6472399151624798e-02 8.0368894563783572e-03  4.9716740394470257e-02 -1.6040917629860527e-02 8.4657067354498260e-03  4.9583935354962548e-02 -1.6299343472213245e-02 7.9827365243201488e-03  5.0532590407443338e-02 -1.6750753828178831e-02 8.2288397350985133e-03  4.9877509129911915e-02 -1.6282226118387529e-02 8.6267014997601730e-03  4.9710692815315545e-02 -1.6581824946251961e-02 8.1741327803838085e-03  5.0689972144914094e-02 -1.7082103695149932e-02 8.4070735451781432e-03  5.0030035666129125e-02 -1.6574996998610689e-02 8.7799310488821235e-03  4.9819115302261262e-02 -1.6912116331994166e-02 8.3591656568792975e-03  5.0816590114395814e-02 -1.7474381941928692e-02 8.5712437200458971e-03  5.0161865628210039e-02 -1.6907771836368556e-02 8.9341186004070830e-03  4.9909315791659734e-02 -1.7290735865963577e-02 8.5353939135341932e-03  4.9942519773448046e-02 -1.6954967127354094e-02 4.8368780012429157e-03  4.9918450935777132e-02 -1.7253689588288015e-02 5.1831111028746721e-03  4.9941145826918200e-02 -1.7603382168605353e-02 5.4937496700018925e-03  4.9984918044351935e-02 -1.7999960983469229e-02 5.7746418326665334e-03  5.0023260201778413e-02 -1.8439810382097386e-02 6.0306818881179841e-03  5.0021705434537718e-02 -1.8922412858371547e-02 6.2645736849121789e-03  4.9917121445860663e-02 -1.9436099470716200e-02 6.4873020175075487e-03  5.1057979013939173e-02 -1.6971575250392612e-02 9.0554215845121775e-03  5.1304077040646712e-02 -1.7102435088808474e-02 5.6391587971011022e-03  5.1487871442783668e-02 -1.7333779715504177e-02 5.9514991584128799e-03  5.1657160765908178e-02 -1.7635644370833686e-02 6.2341086342435001e-03  5.2036361365684604e-02 -2.2273466508076711e-02 5.9312230648524112e-04  5.2226549404563061e-02 -1.7322796795899854e-02 6.2276516192151842e-03  5.1633602590147334e-02 -1.7127585648334779e-02 6.0011695324103161e-03  5.1865438396219654e-02 -1.7330307993408681e-02 6.3088493329644009e-03  4.2813001316113673e-02 -1.5821573177527991e-02 6.1779380098760514e-03  4.4124203767230315e-02 -1.6112461008850679e-02 5.7040818982303553e-03  4.3280372583016452e-02 -1.6403068952753549e-02 5.1626691487150021e-03  4.4184254274481735e-02 -1.6317637255676393e-02 6.0119928747904968e-03  4.2900020026807630e-02 -1.6000534454330941e-02 6.4543408415220060e-03  4.3382579677242988e-02 -1.6637569220204384e-02 5.4924937606017831e-03  4.4271732469444755e-02 -1.6527037937755163e-02 6.2939490886176879e-03  4.3011367451789524e-02 -1.6191511246512288e-02 6.6994385612509531e-03  4.3494717777442883e-02 -1.6866370624118384e-02 5.7843715701350372e-03  4.4377259931326470e-02 -1.6747111038578889e-02 6.5614536570772876e-03  5.1528537095113465e-02 -1.6850841942941484e-02 6.6509272878160610e-03  5.0355766096881249e-02 -1.6602455274090790e-02 9.3532006728686747e-03  4.8941393730492673e-02 -1.6112941252501997e-02 6.2907985233610587e-03  4.8967536194381586e-02 -1.6293253959684485e-02 6.5933569222004209e-03  4.9039743765949627e-02 -1.6523644870315983e-02 6.8798660346673307e-03  4.9132930302205828e-02 -1.6801224902287890e-02 7.1482605385817227e-03  4.9226094232423218e-02 -1.7121849463140510e-02 7.4016857125493050e-03  4.9291918384784507e-02 -1.7483695219278381e-02 7.6432861323058347e-03  4.9269272658932398e-02 -1.7883946164379848e-02 7.8810082857745396e-03  5.0214467474914717e-02 -1.6693816582831141e-02 5.5047912439346088e-03  5.0257854948023685e-02 -1.6936926841568705e-02 5.8250254893847647e-03  5.0334988154958051e-02 -1.7245649470519483e-02 6.1089324458246577e-03  5.0422541700611660e-02 -1.7606384132881653e-02 6.3677404226384149e-03  5.0504195075456115e-02 -1.8013247454664306e-02 6.6053498765934271e-03  5.0559924283816497e-02 -1.8466736184210894e-02 6.8215269541659820e-03  5.0551159189270958e-02 -1.8981798361178477e-02 7.0043582398458043e-03  5.0553746264622147e-02 -1.7162683878246234e-02 4.6080619697928156e-03  5.0567835251206818e-02 -1.7461129018083971e-02 4.9486716771168383e-03  5.0616777730286222e-02 -1.7824749153941683e-02 5.2504518535024186e-03  5.0679752483055146e-02 -1.8236805335580857e-02 5.5184850146845505e-03  5.0737603640486538e-02 -1.8690649458721294e-02 5.7576871993680369e-03  5.0766510905502570e-02 -1.9189046067144677e-02 5.9693012764353813e-03  5.0716105881940268e-02 -1.9762879941732491e-02 6.1394950557416405e-03  5.1063048270040066e-02 -1.6711437583457237e-02 6.3822539882950812e-03  5.1257019053317456e-02 -1.6877718039755886e-02 6.6701363714283960e-03  5.1802351505493699e-02 -2.0505414043073076e-02 6.1748307770994769e-04  5.1874219759489741e-02 -2.1052678113608867e-02 6.7098642796605131e-04  5