<?xml version="1.0"?>
<VTKFile type="UnstructuredGrid"  version="0.1"  >
<UnstructuredGrid>
<Piece  NumberOfPoints="994" NumberOfCells="4311">
<Points>
<DataArray  type="Float64"  NumberOfComponents="3"  format="ascii">10.41339667894499 4.431220870996158 2.093513705097723  10.36495670393908 4.425425127587103 1.993461950860477  10.26073298611181 4.380728429977245 2.064421678572368  10.23979686676259 4.43903503721195 2.071864846042307  10.34705749708592 4.487142590942662 1.996740310769184  10.39582183856257 4.492067251135623 2.099335496691658  10.21947061734104 4.497240855458362 2.079223541283881  10.32969942676158 4.548623245526887 2.000028258580378  10.37874628179161 4.552639915478354 2.105136321733721  10.19947648977254 4.555282657821633 2.086516917548409  10.31267571463381 4.609812322880755 2.003308432064483  10.36199123822777 4.612922889918035 2.110914844111477  10.62214627444999 4.455404472774101 1.631321088246295  10.61013734784674 4.470896558416358 1.761780843948682  10.70212773303592 4.47748911556711 1.710192781898632  10.69236862794999 4.547910585559328 1.699672708444127  10.59832488420312 4.539337146076259 1.754188255119081  10.61088288801217 4.524831603896759 1.617943214533159  10.68292649879121 4.617743282699881 1.689366217592252  10.58690743527792 4.607322644413246 1.746766347868286  10.6000153372627 4.593801637076085 1.604752178713387  10.67376976314571 4.687029620041078 1.679200438036222  10.57582033983722 4.674815444515141 1.739487663981489  10.58945171249323 4.662307229226211 1.591661904622325  10.66475465141673 4.755812029828625 1.669071322300533  10.56488730308672 4.741847346397121 1.73219695610588  10.57907927908873 4.730354795633717 1.578556107899102  10.65566996178218 4.824077014255533 1.65885547868511  10.55386343436328 4.808396647508595 1.724802836915744  10.56856937321119 4.797900267651783 1.565393502953429  10.64615025634687 4.89179185265024 1.6484544873782  10.5424234414015 4.874423663117083 1.717220785337598  10.55758554944624 4.864905106916687 1.552100743223195  10.36065330052441 4.40144556513866 2.188396514474979  10.33985681554614 4.458713811157328 2.199645600881365  10.3196682275378 4.515797342233432 2.210789761008439  10.29978491783939 4.572663280066175 2.221866634813583  10.26190489733716 4.464062001682903 1.919436504498096  10.24295155740762 4.52545206894543 1.920562082521193  10.52669422077291 4.446434269485303 1.692522653969826  10.51256269295991 4.513948471982584 1.682483035281518  10.49896306733065 4.580992594627584 1.672617985615199  10.4857139682903 4.647637472302585 1.662866019255115  10.47264426888201 4.713874388350561 1.653064778127639  10.45944169457116 4.779669142672213 1.643180770572696  10.44580896114433 4.844982366291751 1.633125212600145  10.72550885694055 4.501075624702261 1.924091380713797  10.72906616183903 4.498172724138657 1.819958655001938  10.60665105394204 4.478897871039079 1.894303024198738  10.59408110075883 4.546053613120518 1.891683637059951  10.71812386979908 4.568192568040734 1.813284952491811  10.71360873454657 4.56990869087303 1.922276919675303  10.58195303902606 4.612626074362502 1.889205036263122  10.70759522370055 4.637566651586465 1.806825463538515  10.70212936982976 4.638164776477744 1.920572544938979  10.57014036179806 4.678713797247045 1.886823308867122  10.69734530716322 4.706405753665198 1.800493607596629  10.69092092858352 4.705842248478951 1.918959687716706  10.55847191256483 4.744338935799796 1.884408853712269  10.68720898469059 4.77470072904016 1.794174048564395  10.67983070868251 4.772982661935537 1.917359842721391  10.54673012673381 4.809489070475527 1.881878697547962  10.67698575803606 4.842419780438363 1.787764596995494  10.66868125726422 4.839576635360961 1.915657805204617  10.53460331751847 4.874086189661906 1.879156391306293  10.66635372462881 4.909490757008978 1.781177329714105  10.65717639114557 4.90549917864606 1.91375407470903  11.473496490558 4.581684720815278 2.315043272271982  11.35554628614476 4.58654788798983 2.215560398399691  11.36555238540025 4.56791765630912 2.33217772882838  11.35615872661984 4.649431968757528 2.348354299812817  11.3430596503358 4.669471787712348 2.225732732262429  11.46659868728702 4.667314800053976 2.332348832621216  11.34691948495627 4.729939128095088 2.364091208773528  11.33083581688136 4.751305043735932 2.23557969587024  11.45969962149561 4.751811230147148 2.349093211593317  11.33776379564969 4.809462576476921 2.379664246669696  11.31875049369038 4.832136866080386 2.245441190285718  11.45283223136449 4.835189185827645 2.365554459861302  11.32872429589053 4.888117015210193 2.395325543788882  11.30667575449059 4.912058001792687 2.255390744841099  11.4460504455599 4.917586214570012 2.382058262061889  11.31978315721761 4.965953118223792 2.411194268615275  11.29456686837016 4.991074653230447 2.265561890106608  11.43934910761499 4.999089094091869 2.398831054770207  11.31093164595502 5.042998526396492 2.427361182154339  11.28226409007896 5.069107027091889 2.275981777157865  11.432779315765 5.079653750359737 2.416087783771276  11.583127595826 4.564379653785263 2.423936944602224  11.47287405819688 4.552298927294934 2.438252931380431  11.46651260015506 4.635751569746486 2.459605898802031  11.5798000227872 4.652217736202044 2.445342767374893  11.57648519541845 4.738780393754055 2.465881423057652  11.46024284906003 4.718064403953225 2.480280368696557  11.57324398980878 4.82414957158118 2.485921139238816  11.45402260218647 4.799374342707119 2.500618874977806  11.57005880301751 4.908432137716533 2.505705708646018  11.44797563090014 4.879716146872711 2.520931069091097  11.56710705963185 4.991742781841353 2.525642078318135  11.44217361532618 4.959136806384246 2.541411868937148  11.56460483273419 5.074157827467747 2.546367968375398  11.43684410629371 5.037596914555502 2.562228957715805  10.79872559919848 4.441298505133911 1.491013114851897  10.69079942131187 4.433773957274989 1.507042218396244  10.74611002261396 4.46683340734004 1.607229107090062  10.73720835553949 4.538512733819468 1.591898708667391  10.68139360864624 4.504132720688013 1.486242335385288  10.7894549427823 4.513589294552555 1.469669276688572  10.72862373206653 4.609574084562843 1.576806536794469  10.67231745376 4.574006876367472 1.46566435854913  10.78056066689236 4.585255019718652 1.448550231672677  10.72029190403512 4.680074773873705 1.561838080020389  10.66355062373286 4.643379184194904 1.445187757534025  10.77190692074237 4.656373846416198 1.427571961179853  10.71211820835702 4.750049436265606 1.546894313788264  10.6549676191103 4.71226990051396 1.424709991271189  10.76341063273724 4.726935440462664 1.406613093010523  10.703846787652 4.81947386999303 1.531883436546245  10.6462760249336 4.780651986576729 1.404197254999224  10.75482200784246 4.796916987582335 1.38561025956432  10.69509809986476 4.888309157940288 1.516751371551618  10.63711525780883 4.848499963037534 1.383680845771175  10.74578703424209 4.866215293373743 1.364580607743804  11.69600000000119 4.597439530814992 1.868881846149055  11.58258072007557 4.596125381737626 1.859749911937594  11.58216772302816 4.615013754406168 1.982153459017302  11.57870605180548 4.709576609137192 1.97553205151409  11.57877324260882 4.69079552247645 1.844696845808042  11.69600000000119 4.696532949769446 1.856188343013194  11.57404624156585 4.803238093536299 1.969495826740733  11.57450657912337 4.783916393143651 1.830180574899197  11.6960000000012 4.794151346796595 1.845139887212528  11.56939515177281 4.896042861654204 1.963571682776119  11.57029021558975 4.875883982924166 1.816125217194954  11.6960000000012 4.890645970388045 1.834844212949503  11.56497853771992 4.988292961551792 1.957551194735423  11.56641658139269 4.966921203229993 1.802004667929597  11.6960000000012 4.986545884303795 1.824807639916325  11.56087782411351 5.080108832838818 1.951269835994714  11.56256012218359 5.057123703268548 1.787503145202598  11.69600000000121 5.082001174862651 1.814229066439372  11.55558963715439 5.171058975696398 1.944530102535699  11.55794289764726 5.146143120786749 1.771282875965363  11.69600000000121 5.175847051036969 1.800054634870278  11.25048232512473 4.535796005144136 2.418786841237186  11.36032726904454 4.539210534662788 2.451156472393731  11.35308627292822 4.618820119133236 2.47097433124847  11.24065544109571 4.612565648408374 2.434515150752578  11.34590734939797 4.697473711694186 2.49030660649006  11.23094753372101 4.688520242715834 2.449923678588157  11.33876777871529 4.775235548110888 2.509309523414859  11.2213251783836 4.763676382215565 2.465135926339813  11.3317872708776 4.852175827961648 2.528291402287461  11.21178779320705 4.8380924087799 2.480295298985386  11.32498009390673 4.928344747001146 2.547407344534593  11.20236242103367 4.91177783576865 2.495523290142905  11.31846486682536 5.003800601898252 2.56685057813617  11.19306546461383 4.984637556681944 2.510925967510596  10.4952756878144 4.42441283366955 1.60767193692772  10.4698908875369 4.39194066183008 1.502579167504001  10.35729438812349 4.388191605414133 1.594108795199726  10.34031745392207 4.453574229269932 1.579037792424063  10.45402708663044 4.457837167889293 1.480812321482144  10.48046809687719 4.491644704205032 1.593470819986899  10.32388642030917 4.51873270093575 1.564129166440115  10.43870777352018 4.523520771000834 1.459230547424556  10.46621213502945 4.5585341230283 1.579463834593956  10.30780121782763 4.583635251822318 1.54929781689714  10.42374260611239 4.588882862979643 1.437756376960828  10.45232600878233 4.625057016106412 1.565562502072764  10.29188722835473 4.648249059865938 1.534459936485328  11.47933207461464 4.572015242312842 1.749050255644072  11.47166159592053 4.591041613924581 1.872303621078983  11.46401815905018 4.681665653525025 1.859124023077011  11.47387201679478 4.662629876110679 1.730260457445361  11.45609404794149 4.770806013762706 1.846224055925524  11.46840964697838 4.751868534080566 1.711822302030423  11.44829169640522 4.858725465091051 1.833367098364614  11.46302490804408 4.839783227599499 1.693604052675031  11
[...]
<PointData  Vectors="f_16"> 
<DataArray  type="Float64"  Name="f_16"  NumberOfComponents="3" format="ascii">7.0131092195297572e-03 -6.8173127017289034e-04 -1.0986307272048391e-03  7.3367416215458382e-03 -5.6232696781610670e-04 -1.4217092295927614e-03  8.7162155406102868e-03 -1.6957165251675994e-03 -1.5049467502373708e-03  8.2174695671607123e-03 -1.6908339329051300e-03 -1.1244493715859231e-03  6.9366272764982079e-03 -4.1133390838387908e-04 -1.0906010093610214e-03  6.6062123249769466e-03 -5.4183164290572334e-04 -7.8248047438816493e-04  7.6978470019683680e-03 -1.7040177335553388e-03 -8.0495441013737348e-04  6.4867261980929300e-03 -3.2491316211167415e-04 -7.9419472897868700e-04  6.1508437881707236e-03 -4.6832286491271504e-04 -5.1151398889156771e-04  7.1852306106038513e-03 -1.7211359338159611e-03 -5.0360720932602894e-04  6.0265182617968921e-03 -2.7287250788013217e-04 -5.1569749780839419e-04  5.6809487578239615e-03 -4.3310836207860546e-04 -2.6691131433194772e-04  4.5002216073669011e-03 1.3967893390704205e-03 -1.9043096105084553e-03  4.6878094769335164e-03 1.0583323636872062e-03 -1.5693581900151077e-03  3.8915190208534925e-03 1.1979604306728592e-03 -1.5469653832283817e-03  3.8329698038863714e-03 1.5550601745998429e-03 -1.4268870911401416e-03  4.5550844990843217e-03 1.3996594595991757e-03 -1.4139515332761659e-03  4.4124512413944075e-03 1.7676636159417033e-03 -1.7865490190591997e-03  3.7553699493686407e-03 1.8411198598504560e-03 -1.2946518589317302e-03  4.3898748765382259e-03 1.6630479071805388e-03 -1.2404932023630090e-03  4.2944382966250477e-03 2.0581275825252172e-03 -1.6447149783972333e-03  3.6594386876142573e-03 2.0598344051853397e-03 -1.1487104755240076e-03  4.2019130675748709e-03 1.8581674772813047e-03 -1.0533646268605932e-03  4.1595672839253445e-03 2.2831610511229485e-03 -1.4802629223582950e-03  3.5531644911395831e-03 2.2219959665080976e-03 -9.9318969846291447e-04  4.0021295122808298e-03 1.9970720240799584e-03 -8.6121711863999025e-04  4.0170293941369896e-03 2.4529825309885954e-03 -1.3018422149291720e-03  3.4437356238805760e-03 2.3364502739166471e-03 -8.3283280751388848e-04  3.8052743024434375e-03 2.0898303386911780e-03 -6.7238786191086038e-04  3.8773010611485681e-03 2.5756305748717103e-03 -1.1198503034392552e-03  3.3549958582391676e-03 2.4129973639169340e-03 -6.7468033394066840e-04  3.6239978966466167e-03 2.1426170691707801e-03 -4.8927950574704289e-04  3.7577475420540905e-03 2.6556765001420745e-03 -9.3719913199024805e-04  7.8316521965884674e-03 -1.4575889242855048e-03 -1.0003461129130282e-03  7.3469852078999120e-03 -1.4497166485442929e-03 -6.6324463902508882e-04  6.8336500648838458e-03 -1.4726737537977678e-03 -3.9883488114220031e-04  6.3167172084438242e-03 -1.5107762204739799e-03 -1.6197821064782019e-04  7.6646443501783837e-03 -6.2286641580216128e-04 -1.4067923273142621e-03  7.2031881199112286e-03 -5.4516454285460860e-04 -1.0760546143549050e-03  5.3825125480930205e-03 1.1421261069222404e-03 -1.9157133071199942e-03  5.2130063885953599e-03 1.4825474680654597e-03 -1.7528507574767660e-03  5.0066497058364953e-03 1.7453806169954512e-03 -1.5589870969410897e-03  4.7782237202333598e-03 1.9442392325164128e-03 -1.3450333856780314e-03  4.5444003524648746e-03 2.0912159006687627e-03 -1.1257662314191649e-03  4.3142532517021701e-03 2.1936308287837467e-03 -9.0858574701584301e-04  4.0877722737118491e-03 2.2470799876760914e-03 -6.9259209046048406e-04  3.8548738515619446e-03 7.8100685595580439e-04 -9.7127635815298099e-04  3.7436076764673465e-03 9.9548606128627994e-04 -1.2129562696949461e-03  4.8383280129595130e-03 7.0548990208466641e-04 -1.2387154731248989e-03  4.6625318679695323e-03 1.0135419375808109e-03 -1.0529357447556032e-03  3.6772057489877167e-03 1.3266052012308655e-03 -1.0836941085012725e-03  3.7599427577899554e-03 1.0910653795127981e-03 -8.2529470144568665e-04  4.4518042537598917e-03 1.2457682667902825e-03 -8.5667405577222590e-04  3.5905119260550545e-03 1.5895745414413068e-03 -9.4068570029737621e-04  3.6401081796378293e-03 1.3333138294085972e-03 -6.6675730559202502e-04  4.2134467918568197e-03 1.4093211709022056e-03 -6.5806434922772246e-04  3.4838060294663268e-03 1.7874192913463621e-03 -7.9000997572244202e-04  3.4966643842324883e-03 1.5096849173765704e-03 -5.0499510647824348e-04  3.9608756741401291e-03 1.5170974513767619e-03 -4.6471549965395779e-04  3.3628667915752810e-03 1.9282204028581592e-03 -6.3660003822191985e-04  3.3360398045022025e-03 1.6284879931745292e-03 -3.4747710240224901e-04  3.7109051367260107e-03 1.5797958455668036e-03 -2.7839266405422982e-04  3.2352788904498183e-03 2.0214647805269948e-03 -4.8473015239641867e-04  3.1664892932681968e-03 1.6991978468646539e-03 -1.9863864861384740e-04  3.4710892970632413e-03 1.6024242346066467e-03 -9.7631291247937172e-05  3.1220854509182742e-03 2.0779150539649810e-03 -3.3797724005790882e-04  3.0077960010522669e-03 1.7320115103665918e-03 -6.0573683338912261e-05  2.3666795484068300e-04 -1.3093813645702242e-04 -1.9746256139823395e-05  4.8093572502064925e-04 -6.3279255820296724e-05 -1.6651885518642642e-05  4.7286186904232680e-04 -8.1275236844396888e-05 2.9765460613475452e-05  5.3617012714750638e-04 1.0227740618801166e-04 9.6410289894602728e-05  5.5995636501668877e-04 1.2389004422171530e-04 3.9394247664494784e-05  2.5682864088532448e-04 -5.4097448492779539e-07 2.7976569646479439e-05  6.1208887969754051e-04 2.8574362675425882e-04 2.0177882605171472e-04  6.5426452091245032e-04 3.1702296078892360e-04 1.2774610523051113e-04  2.9182432335387410e-04 1.3241989362980510e-04 1.1208219783380495e-04  7.0078561441543812e-04 4.7203905199575698e-04 3.2124256055014792e-04  7.6377932051942558e-04 5.1706475304025517e-04 2.2486162944685578e-04  3.4930232837627849e-04 2.6841197038615270e-04 2.2444272912815571e-04  8.0041507484107644e-04 6.5737539265215902e-04 4.2736197297658224e-04  8.7951579444925149e-04 7.1358232970694289e-04 3.0830916419672186e-04  4.4713597047259349e-04 4.1864114625548735e-04 3.4723628568650110e-04  8.9694344907425422e-04 8.2238491409179174e-04 5.0234553576477528e-04  9.8055425781370139e-04 8.8193543546675221e-04 3.7000160895046775e-04  5.9053795795718691e-04 5.8604413930647562e-04 4.4210961185342843e-04  9.7669887733513772e-04 9.4814497347105013e-04 5.5176134594278007e-04  1.0547230291968017e-03 1.0065818617518534e-03 4.1588682695723698e-04  7.3299352890189887e-04 7.3463083983155738e-04 4.8729069631307987e-04  1.1503090033902553e-04 -1.0548561001508300e-04 -4.4618016635376018e-05  2.5049481094506146e-04 -1.3297395237160759e-04 -2.5527497705122267e-06  2.6691205197868227e-04 -2.0253981716644486e-06 4.9443163219833212e-05  7.6709730802002830e-05 -4.0587000029371236e-05 -1.6141041321001588e-06  8.4178731298787334e-05 3.7852306002061875e-05 4.0658652385803517e-05  3.0095514718754600e-04 1.3212159937103489e-04 1.4601041939313203e-04  1.0640233239058793e-04 9.7467637777949492e-05 1.1276790497423478e-04  3.5512311911432869e-04 2.6787765751350021e-04 2.7421935526074554e-04  1.5424721788987150e-04 1.5654627707910369e-04 2.1944489568116496e-04  4.4567276092596963e-04 4.1421005885637315e-04 4.1613938700536498e-04  2.4632571614204956e-04 2.4925270280671055e-04 3.7278740366527538e-04  5.8298864203964594e-04 5.7898119754389282e-04 5.2907284971949128e-04  4.4704174009691286e-04 4.4830404688389635e-04 4.9690151057465884e-04  7.2392022863800400e-04 7.2669419260043739e-04 5.9241111165375801e-04  3.1031583753548544e-03 1.4803628242884568e-03 -1.9134208387387385e-03  3.9107965493037824e-03 1.6180226084575198e-03 -2.1216823871522982e-03  3.5050453786302691e-03 1.3739036283895922e-03 -1.7262392540544362e-03  3.4998182524462029e-03 1.7444622257441332e-03 -1.6382704852568636e-03  3.8936004897795369e-03 2.0123520310577486e-03 -2.0609009822811853e-03  3.1610194526672975e-03 1.8627750945953837e-03 -1.8694467427300852e-03  3.4801751114848598e-03 2.0461990860696608e-03 -1.5429225101889227e-03  3.8551759060953985e-03 2.3289105442557824e-03 -1.9806606010081673e-03  3.2048688081144461e-03 2.1778056093145733e-03 -1.8218671104870898e-03  3.4473936833584328e-03 2.2835836403680390e-03 -1.4300874294581694e-03  3.8073040703655273e-03 2.5823602298174330e-03 -1.8735132482361971e-03  3.2381973657867784e-03 2.4333220074877933e-03 -1.7551092164846253e-03  3.4071865509557354e-03 2.4664699967321033e-03 -1.3010014124623590e-03  3.7565481332946485e-03 2.7834692221645084e-03 -1.7438780539010719e-03  3.2663145253756230e-03 2.6391131960783912e-03 -1.6665194032667793e-03  3.3652218384145069e-03 2.6032052388928594e-03 -1.1597353734520593e-03  3.7065273104629395e-03 2.9399345876304039e-03 -1.5987686799450555e-03  3.2936769650992190e-03 2.8039967904321967e-03 -1.5580446161248586e-03  3.3391138659118942e-03 2.7042819280557579e-03 -1.0156300516189814e-03  3.6796661729995173e-03 3.0575942395579640e-03 -1.4494723537589213e-03  3.3270649692615393e-03 2.9362229730012061e-03 -1.4361990814773758e-03  0.0000000000000000e+00 0.0000000000000000e+00 0.0000000000000000e+00  1.0153849874064762e-04 -9.6478634904881389e-05 -1.5147133498988481e-05  1.0048850179455384e-04 -9.6151872315286961e-05 -1.9632228823767346e-05  6.8514990688702543e-05 -3.9397989568783506e-05 -1.8761160177154854e-05  6.6727868226780808e-05 -4.0483088209345622e-05 -2.5285792764149214e-05  0.0000000000000000e+00 0.0000000000000000e+00 0.0000000000000000e+00  7.8602581409512918e-05 3.2969014374883163e-05 -3.9996396329348554e-06  7.6903870297535161e-05 3.1650951113033929e-05 -1.8648379900177361e-05  0.0000000000000000e+00 0.0000000000000000e+00 0.0000000000000000e+00  1.0683209838132258e-04 9.9370071392975128e-05 1.5289230907501540e-05  1.0629444752623594e-04 9.8201258669123044e-05 -2.3539497254300513e-05  0.0000000000000000e+00 0.0000000000000000e+00 0.0000000000000000e+00  1.6288393493985305e-04 1.6873516005806559e-04 2.9076517526194849e-05  1.6486736968401321e-04 1.6884773142475775e-04 -4.7376654561330947e-05  0.0000000000000000e+00 0.0000000000000000e+00 0.0000000000000000e+00  2.7821469582330169e-04 2.8338254664157900e-04 2.4277223828802733e-05  2.7848775208022357e-04 2.8213488789871215e-04 -1.0343096341157330e-04  0.0000000000000000e+00 0.0000000000000000e+00 0.0000000000000000e+00  5.1166728457759049e-04 5.1238032762220118e-04 1.1281133093582717e-05  5.0745223780234675e-04 5.1038575764847252e-04 -1.8460229686756478e-04  0.0000000000000000e+00 0.0000000000000000e+00 0.0000000000000000e+00  8.7062953795780248e-04 3.2334482168325014e-05 1.4117582163331296e-04  5.0477018341672081e-04 -8.2419735524431642e-05 8.0017343438568711e-05  5.6223945819479349e-04 1.0605539068373836e-04 1.5302105382591314e-04  9.5350969750972495e-04 2.6917993903598117e-04 2.2472891809780624e-04  6.2934092240797535e-04 2.8917726396549004e-04 2.7124456040022624e-04  1.0350663715257276e-03 4.8253226553356858e-04 3.4290503333207181e-04  7.0668657986930371e-04 4.6874487453660193e-04 4.0594563130643297e-04  1.1098827787817543e-03 6.7311836083837882e-04 4.6240435832097996e-04  7.9534963981332807e-04 6.4524424246248380e-04 5.2610053663722440e-04  1.1699637660096567e-03 8.3652003543262829e-04 5.6249915821951339e-04  8.8430102411872914e-04 8.0430566279217851e-04 6.1046986586436294e-04  1.2096410684967632e-03 9.6857522114035066e-04 6.3656531968482003e-04  9.6187991194290347e-04 9.3072222771439415e-04 6.6550066552421481e-04  1.2344042597143532e-03 1.0733677377227720e-03 6.8219161185773837e-04  5.6126140399606400e-03 1.3389492445891470e-03 -2.2308774349025246e-03  5.7949369179244210e-03 1.6021189415749123e-03 -2.6179802585962826e-03  6.8798307755948843e-03 1.0382692829912826e-03 -2.5484568432303698e-03  6.6267418561422554e-03 1.3604182741206101e-03 -2.3533884527946716e-03  5.6358891145847469e-03 1.9708218541888535e-03 -2.5241633248795545e-03  5.4442667665197137e-03 1.6924993405540232e-03 -2.0899511960618261e-03  6.3429190772651160e-03 1.6253796314161727e-03 -2.1089237263125392e-03  5.4585115315703911e-03 2.2816396232044757e-03 -2.3713760234964250e-03  5.2426776907301097e-03 1.9744173079618895e-03 -1.9040263204259892e-03  6.0444959623535280e-03 1.8422687754664994e-03 -1.8467091751715901e-03  5.2701078159396461e-03 2.5396334135508259e-03 -2.1856581891103884e-03  5.0235223688427999e-03 2.1962430452566683e-03 -1.6912878966228427e-03  5.7549654617166691e-03 2.0219272881037069e-03 -1.5852832807169771e-03  1.8726033673043698e-04 -1.1104952739001672e-04 -1.0327348768384816e-04  2.0709215457510199e-04 -1.1694386952229245e-04 -8.2027440507714282e-05  2.2813657681317173e-04 -2.8195025595246242e-06 -8.2855167524934739e-05  2.0685764909357437e-04 -3.8121076529046470e-06 -1.0762924857943775e-04  2.8045900094730484e-04 1.3350917646336462e-04 -8.2186106581750860e-05  2.5534166190314635e-04 1.2523528789771876e-04 -1.2565836157001219e-04  3.6392294569763362e-04 2.8631348393306502e-04 -9.0582793022151914e-05  3.3438339011836453e-04 2.6856733108682895e-04 -1.6339729299881398e-04  4.9292188498150323e-04 4.6460269711118989e-04 -1.1377250133748096e-04  4.6252338785681150e-04 4.3964549186140952e-04 -2.2555239944824671e-04  6.7422873601277657e-04 6.7248432775101285e-04 -1.3750771263885825e-04  6.5595504799891393e-04 6.5409835578738717e-04 -2.9109283431491664e-04  8.6248502717178974e-04 8.6736144460490040e-04 -1.4237756211121598e-04  8.6891407283244313e-04 8.7206306696972660e-04 -3.1856021348977725e-04  8.0858357997596784e-04 1.8815612937973623e-05 5.8220618024719551e-05  8.9749464498191552e-04 2.4730116104840796e-04 1.2930956815723483e-04  9.9351823930622098e-04 4.6377735602561688e-04 2.3339885823718152e-04  1.0858408216962174e-03 6.6304011688706269e-04 3.4177227791176820e-04  1.1628335227635261e-03 8.3684148619511461e-04 4.3581608452739762e-04  1.2148380460346143e-03 9.7712515987267057e-04 5.0874021389112143e-04  1.2452877853139355e-03 1.0861662126273662e-03 5.5838193915378864e-04  6.3475143200038484e-03 8.8022193408902969e-04 -2.1181411823357373e-03  6.1075568423749017e-03 1.1923387193145099e-03 -1.9124118792305542e-03  5.8267626800143522e-03 1.4353022897854015e-03 -1.6727078681549703e-03  5.5224457782864292e-03 1.6215813621455358e-03 -1.4171672705169328e-03  5.2256234888448869e-03 1.7645701697747273e-03 -1.1632481485191234e-03  4.8044030997585196e-03 2.3666807128982976e-03 -1.4711387862437338e-03  4.9293830080960445e-03 1.8681694610718559e-03 -9.1044817900549782e-04  5.4613395955272785e-03 2.1648946089113264e-03 -1.3207963415160539e-03  4.5863713734365279e-03 2.4919140120734759e-03 -1.2508987790301601e-03  4.6192405686977375e-03 1.9266569612078515e-03 -6.5532528456046656e-04  6.7055511667749416e-03 1.4973005964668367e-03 -2.9767820779855129e-03  6.4913093552954057e-03 1.8635611366811466e-03 -2.8673331367824505e-03  6.2694061381987345e-03 2.1883779553416444e-03 -2.6973167788036522e-03  6.0376290275557468e-03 2.4667482861037773e-03 -2.4945625920886980e-03  5.8137845863597505e-03 2.7007322756575883e-03 -2.2868793001479073e-03  9.0928310912266554e-04 4.0139515242452920e-05 2.3402800705434241e-04  9.8312413893965746e-04 2.8434636417043653e-04 3.3058073865021355e-04  1.0506790262628702e-03 4.9563002742119091e-04 4.6271042798580225e-04  1.1124938043742879e-03 6.7939441602493840e-04 5.9359869382927851e-04  1.1625034015347211e-03 8.3656355725951243e-04 7.0067950594184696e-04  1.1968370757424805e-03 9.6515575243506010e-04 7.7535818774181013e-04  1.2198211144148509e-03 1.0691661041488541e-03 8.1534468666464883e-04  5.8358234911441136e-03 7.3978043430667374e-04 -1.7116043740688829e-03  5.6063848912615661e-03 1.0460786521763741e-03 -1.5002057976595204e-03  5.3312004656301025e-03 1.2713061640181810e-03 -1.2671402687078116e-03  5.0298493537028676e-03 1.4324481846881539e-03 -1.0257773757476470e-03  4.7286249281844701e-03 1.5455596035726892e-03 -7.8777761410052719e-04  4.4294645313803652e-03 1.6184244970891151e-03 -5.5492716123393395e-04  4.1281547322833114e-03 1.6448535957983383e-03 -3.2480570312072972e-04  0.0000000000000000e+00 0.0000000000000000e+00 0.0000000000000000e+00  1.2079406643308588e-04 -1.1012337724104624e-04 -4.6581741990336773e-05  8.0237924837641959e-05 -4.9423398688447976e-05 -6.6245969546570001e-06  0.0000000000000000e+00 0.0000000000000000e+00 0.0000000000000000e+00  8.5685866730267652e-05 3.0976739912052908e-05 4.2737718721818057e-05  0.0000000000000000e+00 0.0000000000000000e+00 0.0000000000000000e+00  1.0488844171745298e-04 9.4687638871649942e-05 1.2073472724342920e-04  0.0000000000000000e+00 0.0000000000000000e+00 0.0000000000000000e+00  1.4772694128868598e-04 1.5082957763357010e-04 2.3410764285987783e-04  0.0000000000000000e+00 0.0000000000000000e+00 0.0000000000000000e+00  2.3354033970290051e-04 2.3561168901232893e-04 3.8586244017740630e-04  0.0000000000000000e+00 0.0000000000000000e+00 0.0000000000000000e+00  4.4678886401659302e-04 4.4561910743001851e-04 5.4363245886882917e-04  0.0000000000000000e+00 0.0000000000000000e+00 0.0000000000000000e+00  5.9037555155969116e-03 3.7666660373933576e-04 -1.4113162340551994e-03  6.9374873868710361e-03 -3.5941047698391522e-05 -1.6239397986381817e-03  6.5976118176366951e-03 1.9893232449364850e-04 -1.3391632111541360e-03  5.6410276047960811e-03 6.5215488745203173e-04 -1.1753673695894535e-03  5.3304043391645701e-03 8.4636722718301935e-04 -9.3168042497516763e-04  6.2022940606264176e-03 3.5366972434524804e-04 -1.0507816947677895e-03  4.9904025514743208e-03 9.7731694831937658e-04 -6.9260576749804754e-04  5.7902727152368740e-03 4.6078410152668268e-04 -7.7405637976033805e-04  4.6485725870631101e-03 1.0634234130856640e-03 -4.6134685911679399e-04  5.3880325453478347e-03 5.3740668711259169e-04 -5.0407106577284543e-04  4.3097806511244001e-03 1.1107270782728142e-03 -2.3598443195088555e-04  4.9869917559176311e-03 5.8235210584419057e-04 -2.3782491389877177e-04  3.9694207489764577e-03 1.1138680396938741e-03 -1.5262776604383802e-05  4.5738695895085647e-03 5.8993577127688425e-04 2.7481539789987438e-05  1.9237523216901475e-04 -9.5673675656662309e-05 -1.4981571842492876e-04  3.3968290654204147e-04 1.5586862276196161e-05 -3.6976866153608912e-04  3.7448580476956168e-04 -9.8110378366467793e-06 -3.1150817387330437e-04  4.7507243364828042e-04 1.6321216860749942e-04 -3.1988050609888831e-04  4.5045298391349289e-04 1.8951457308654315e-04 -3.8149219909547252e-04  2.2572316520823757e-04 1.4334004134225159e-05 -1.5500437974338120e-04  6.0333937449772292e-04 3.6147009945366234e-04 -3.6040457329517098e-04  5.8291858012488485e-04 3.8268174729436160e-04 -4.4181532247439129e-04  2.8621674944074042e-04 1.4895877586773768e-04 -1.9085699443547111e-04  7.5703328366029355e-04 5.8300818153345384e-04 -4.1495306927069581e-04  7.3886804014212340e-04 5.9834363981358068e-04 -5.2374140769762055e-04  3.7367577956070149e-04 2.9895092561421166e-04 -2.5480395069999074e-04  9.3742479731454150e-04 8.2568442627302526e-04 -4.6365178326440514e-04  9.2597885740811764e-04 8.4056733464033570e-04 -6.0072539284620205e-04  5.1032223732231968e-04 4.8081932315588205e-04 -3.4230029941527651e-04  1.1251186218714942e-03 1.0645392025776044e-03 -4.9157657160513028e-04  1.1286912409317952e-03 1.0872191386377384e-03 -6.4855250863884181e-04  7.1258197156175542e-04 7.0777430808472688e-04 -4.1922533821670411e-04  1.2976069492396261e-03 1.2732354915285474e-03 -5.0504744212451647e-04  1.3218705764449438e-03 1.3080914043055026e-03 -6.7086493903277132e-04  9.3133653555166817e-04 9.3431791761804551e-04 -4.5573378837793162e-04  4.8655909835583393e-03 1.6525598166309689e-03 -2.3479252905615451e-03  4.7724107357332290e-03 2.0417029850050240e-03 -2.2705191269051777e-03  4.6530132279084015e-03 2.3536619194321987e-03 -2.1488082585238632e-03  4.5228425612520501e-03 2.6058013131114942e-03 -1.9945659495402457e-03  3.7887547587539408e-04 -4.3388299220524475e-05 -2.2866291443496400e-04  4.6445269285175759e-04 1.2573507764311798e-04 -2.3696050768961586e-04  5.7946519820085008e-04 3.2168359425186193e-04 -2.5794043453146535e-04  7.2075346479169187e-04 5.3970242349072033e-04 -2.8462372382372705e-04  8.8706327610247780e-04 7.7398211193894996e-04 -3.0623693895686168e-04  1.0602485353692261e-03 1.0005748635653518e-03 -3.1462897574324755e-04  1.2168618395570446e-03 1.1933197420595926e-03 -3.2049