<?xml version="1.0"?>
<VTKFile type="UnstructuredGrid"  version="0.1"  >
<UnstructuredGrid>
<Piece  NumberOfPoints="953" NumberOfCells="4116">
<Points>
<DataArray  type="Float64"  NumberOfComponents="3"  format="ascii">3.309510379629804 0.8863836409368193 2.616154815527406  3.444182813441553 0.9209586002677446 2.667203884134563  3.328980118271651 0.9521439490552337 2.762453947971372  3.332655598933088 0.8967213002316559 2.78851043660581  3.448401826589566 0.8642325253604897 2.690585360521831  3.31579258608076 0.8280953931305725 2.639930694748617  3.336298194938632 0.8413373348870876 2.81455400698196  3.452574480522336 0.80754298103268 2.713933865372631  3.322102618770432 0.7698559053450988 2.663701515376427  3.339910520426894 0.7859891466894402 2.840585789008104  3.456712043473359 0.750882338130715 2.737273256320213  3.328411795279227 0.7116554172552569 2.687465679565256  3.343493472723937 0.7306761786724061 2.866610772541831  3.46082049465365 0.6942531242978898 2.760607165345694  3.334688177644538 0.6534862464869524 2.711227281879887  3.347039831482192 0.6754069919168225 2.892629007199851  3.464900777326104 0.637659013888338 2.783938243179442  3.340883402761118 0.5953598670357796 2.734980830220038  3.350535924438287 0.6201925860512225 2.918629191040643  3.468950506189825 0.581140988175765 2.807258238499981  3.928267896252681 1.19846654568978 3.517650891650174  3.795491872946577 1.186737158822734 3.507233066220269  3.879796329050111 1.260415705894742 3.622626312682258  3.793760672484226 1.236790923932431 3.474781388961499  3.925495974893083 1.24883784376596 3.485378563266717  3.881703040326817 1.210155404570535 3.657452055654238  3.931048340747762 1.148100048950528 3.549901483456352  3.797229054224419 1.13669239840557 3.539662364013837  3.8836408452702 1.159881776415965 3.692207393308089  3.933856985139269 1.097717296912597 3.582096401313585  4.830914772240143 0.8669951873710252 2.848470950943216  4.711095366839688 0.8344714265006634 2.808416188063085  4.770251871723918 0.9189382919576861 2.972087006599022  4.703312495378058 0.8887648500417146 2.785964952482801  4.778119940973102 0.8675761143008115 2.999323010154519  4.837928529660554 0.812963948594897 2.872056121445372  4.718864163875057 0.7801783953805086 2.830865595138155  4.785942263038891 0.8161982332003074 3.026530579640188  4.844962880415538 0.758942180829133 2.895621517956604  4.726585473682266 0.7258866725085849 2.853316758148127  3.189386137089473 0.8706620167084802 2.757012037780792  3.242634703182631 0.9484002630190136 2.898292522677149  3.194936373316584 0.8146721391562888 2.785039328749702  3.24564902943293 0.8947284430644704 2.926789281089172  3.200478556964971 0.7587125935941077 2.813056172949324  3.248639770488599 0.841084093036562 2.95527783227224  3.205991414791407 0.7027836448635859 2.841069620471582  3.251601300209731 0.787467057677252 2.983757847202368  3.924235845684834 1.054631281481423 2.896407026829799  4.042648438318679 1.018677187878864 2.80291522239478  4.029734928942861 1.086480894916666 2.944184107613537  4.033581811572337 1.035450523225623 2.970238407666375  4.047032421962647 0.9656749557324483 2.826341469258864  3.927785224865167 1.003016755565553 2.922148426255673  4.051363953183974 0.9126517322100309 2.849739858872248  3.931274572950194 0.9513885441188332 2.947865002805727  4.037379158528795 0.9844007145567089 2.996288118415261  3.934733035938298 0.8997583137470264 2.973563971174869  4.055670271107773 0.8596259161615664 2.873116196267135  4.041152961911114 0.9333442221346975 3.022328649986522  3.938187963156937 0.8481354506971741 2.999251581215874  4.059975242076549 0.8066091746322046 2.896482761900796  4.044926575598378 0.8822876213032286 3.048360405467668  3.941666559112415 0.7965275955183193 3.024937364180309  4.064300864416618 0.7536103722465325 2.919855050203848  4.048724443084279 0.8312334234966833 3.074387343770027  3.945198747483074 0.744940545759847 3.050637823756019  4.068665734873053 0.700631522291109 2.943250376855835  4.052569985463395 0.7801836234384977 3.100417422232893  3.917567988818408 0.9895243592666594 2.76171074308338  3.922087497822786 0.9358718841143401 2.785146459244783  3.92654870632354 0.882200515798256 2.808540423514554  3.93097958570269 0.8285328957924153 2.831906957783342  3.935404964659423 0.7748816737466495 2.855261291474537  3.939847456323109 0.7212572559917418 2.878621369185009  3.944327511688839 0.6676594158387426 2.90201591724711  4.358478989280089 1.037284436718629 2.781353379484818  4.45230853778671 1.012400541590513 2.694290892315442  4.482284864998666 1.061905086215139 2.803104333200595  4.488601521213908 1.009480065210504 2.827862910145921  4.458541324074151 0.9568999751694327 2.713115379807013  4.363993185928181 0.9838375751784043 2.80413536624355  4.494947324322871 0.9570407877874865 2.852621502195785  4.464766785520603 0.9013826952036632 2.731914799427259  4.369487779399154 0.930373341240925 2.826899694305932  4.501308089077008 0.9045966431727638 2.877373319137379  4.470992650372068 0.8458677293861886 2.750704190563797  4.37497844968242 0.8769042331264161 2.849654950570768  4.477227408071798 0.7903615550608907 2.769487046624896  4.380477006225024 0.823438096001991 2.872403257802603  4.507673869629074 0.8521489698351448 2.902119536735071  4.483481045986071 0.7348668028986112 2.788268568055393  4.38599852936984 0.7699798820078559 2.895151403162465  4.514035553789819 0.7996978418786478 2.926865924930304  4.489751262828892 0.6793824297213956 2.807063911788437  4.391553746001064 0.716532185809617 2.917909467565603  4.520400245184372 0.7472433179061417 2.951627041262305  3.560434897967375 0.8726145473773337 2.481128775753542  3.594607238501702 0.8469055578849887 2.334883576455969  3.706376856012104 0.8739810427205204 2.433598346042467  3.711560646270068 0.8129018484560275 2.444223756241052  3.603720841959586 0.7838942477983135 2.340490675477463  3.567316497945888 0.8119638868023578 2.495410907469922  3.612825609746781 0.7209633243056661 2.346037668749796  3.574166530644203 0.7513618686579029 2.509657588532186  3.716577878573236 0.7518815353691248 2.454776067031997  3.580983437212224 0.6908012101870372 2.523892416115534  3.621903152389133 0.6581180763371084 2.351567636663879  3.721517206928818 0.6909008376255081 2.465309988041477  3.587767494232271 0.630283399295577 2.538124008672631  3.630941319481108 0.5953421404829822 2.357098876999284  3.726427137596251 0.6299744889264008 2.475843174794886  3.594510383249487 0.5698157095325015 2.552349433278836  3.639908698016319 0.5326575760000566 2.362637206459833  3.731358363973318 0.5691352719973563 2.486384712107461  3.601170731711666 0.5094292339679523 2.566570518575604  3.648736015206932 0.4700853276207325 2.368184946470569  3.736378821358559 0.5084502734845322 2.496946874957011  3.724370281775525 1.141282247703243 3.082711101866201  3.704081063170253 1.062356391008062 2.939199219735253  3.822384560095361 1.099806315808445 2.996032815519053  3.825412925076121 1.048949271364176 3.022795826828248  3.706968123709886 1.010837563877719 2.965983619177339  3.727026573158672 1.090783709578263 3.11052177784317  3.828381211514174 0.998084081419947 3.049547488054737  3.709793118079762 0.9593178684287758 2.992743592239803  3.729626638310848 1.040286956174908 3.138328061300475  3.831318955925492 0.9472196760542815 3.076287791341103  3.712585328409843 0.9078059984942044 3.019486152181014  3.732197460056686 0.9897968318171553 3.166126471285223  3.834251381274478 0.8963607685127712 3.103016720772792  3.715368143289176 0.8563072981058725 3.046215939620422  3.734762684313446 0.9393140643211506 3.193912245902549  3.83720413045812 0.8455098597451265 3.129737529124846  3.71816431234493 0.8048280998907978 3.072938506229869  3.737346177189691 0.8888375756289735 3.221682754786094  3.840206750118762 0.7946704576098146 3.156458887749065  3.721000676927003 0.7533737561695364 3.099668376551995  3.739976271795561 0.838365213967119 3.249438154501159  4.430686719128866 1.475875182254693 3.54300134515803  4.394279318787187 1.416210052499245 3.454013173467434  4.525939406320055 1.433381623113186 3.452600319701647  4.533413972678006 1.380908968682524 3.483711858823026  4.401454890169848 1.364288730274604 3.485377301385038  4.437672014771972 1.423002373818454 3.576162721491505  4.540959237692551 1.328475675990335 3.514842323242847  4.408697854048575 1.312405990289554 3.516781125810621  4.44471921459356 1.370177986095098 3.609364084400875  4.548537620253997 1.276074739367996 3.545968923967371  4.415971350943687 1.260549362314227 3.548190988530685  4.451796366891847 1.317389096884447 3.642571891875184  4.556126478614663 1.223690665933294 3.577066847333925  4.423255606761015 1.208702462774091 3.579575800808854  4.458886687317339 1.264615881673365 3.675750733679528  4.563705351402299 1.171306132955868 3.608106671857135  4.430533129777731 1.15684309672424 3.610902898022008  4.465974280485407 1.211833973707732 3.708862295248368  4.571246926458716 1.11889965649795 3.639057346952491  4.437771950146161 1.104940580172765 3.642134838705206  4.473033382927467 1.15901394020781 3.741863064220589  3.107656943876549 1.047208052728156 2.963983748776449  3.245124434881262 1.076455492413799 3.005605028218131  3.112827387255726 1.110195358181116 3.07642915338258  3.114789591951417 1.05802057711248 3.10671423296037  3.247510140404717 1.024173560437458 3.034581711357327  3.11044995665593 0.9941347482730086 2.993869305517189  3.116741623945122 1.005870016728639 3.13699799320543  3.249870246320647 0.9719144654305467 3.063548501623789  3.254523035092764 0.867466197179638 3.12145586944269  3.118731330681721 0.835059896707818 3.083487631378221  3.120591502519848 0.9016425744719223 3.19754341266704  3.115995800234012 0.8880590243216396 3.053622931827576  3.252207626418506 0.9196793074367959 3.09250719334383  3.122476374307003 0.8495566650382377 3.227794342457984  3.25681578255324 0.8152750625951104 3.150391539117927  3.121428741313743 0.7820841059728256 3.113344276422415  3.124326101511409 0.797477425065179
[...]
<PointData  Vectors="f_16"> 
<DataArray  type="Float64"  Name="f_16"  NumberOfComponents="3" format="ascii">7.2822756515200454e-02 -2.2577947999539428e-02 8.0787531537822831e-03  7.1839565877833508e-02 -2.2405895669712225e-02 8.8570029054561329e-03  7.2630021909289882e-02 -2.3110474610206301e-02 9.1900640735114968e-03  7.2712469186231823e-02 -2.3406107432296670e-02 8.9215307592509629e-03  7.1975968649240607e-02 -2.2663122893669837e-02 8.5565162510986611e-03  7.2971105222230576e-02 -2.2825580264949342e-02 7.8102646016659739e-03  7.2785604884758964e-02 -2.3694456987894227e-02 8.6624313415666638e-03  7.2102900956277069e-02 -2.2924871452488935e-02 8.2783987959080003e-03  7.3093352576478518e-02 -2.3078359119838170e-02 7.5529367953606199e-03  7.2856696291965978e-02 -2.3977648556004157e-02 8.4049874671604293e-03  7.2227091686925524e-02 -2.3190599969293096e-02 8.0083960891566587e-03  7.3205941559258580e-02 -2.3332932125395625e-02 7.2964627943938824e-03  7.2932988851491548e-02 -2.4258373225089162e-02 8.1418245386148842e-03  7.2356097204480399e-02 -2.3461562555194385e-02 7.7370268438824354e-03  7.3324436688682798e-02 -2.3588497898561198e-02 7.0342258550369413e-03  7.3022707750088539e-02 -2.4540435775971911e-02 7.8670705500878714e-03  7.2496224971442480e-02 -2.3740996519107410e-02 7.4577183573775220e-03  7.3464902676427052e-02 -2.3846284545016149e-02 6.7635887649751371e-03  7.3134378987795914e-02 -2.4828588142545585e-02 7.5763706454398056e-03  7.2655763532528686e-02 -2.4039579663585900e-02 7.1693522481178669e-03  6.7200290337770266e-02 -2.6824029171849468e-02 1.5350607170586002e-02  6.8082023902085440e-02 -2.6803113865178998e-02 1.4937106393867149e-02  6.7170419721331254e-02 -2.7217859061745363e-02 1.5971494946505998e-02  6.8124767965606403e-02 -2.6483808948408547e-02 1.5113664344266973e-02  6.7200674441491484e-02 -2.6499446555953092e-02 1.5541289637654552e-02  6.7117373331363250e-02 -2.7489967747087018e-02 1.5809045703367986e-02  6.7196945325199695e-02 -2.7112169749592508e-02 1.5141537968333637e-02  6.8037166381704595e-02 -2.7088716571086476e-02 1.4743062506955637e-02  6.7057138245146072e-02 -2.7726583453157136e-02 1.5624298009489765e-02  6.7187345036128984e-02 -2.7366577060714641e-02 1.4910976253100840e-02  6.2661012980355563e-02 -2.0210470940050202e-02 1.0701094070472575e-02  6.3605552933420753e-02 -2.0313458471043482e-02 1.0335828149126754e-02  6.2912504549715462e-02 -2.1139545754044548e-02 1.1513282867993940e-02  6.3433186292990038e-02 -2.0028661005034164e-02 1.0588989176089067e-02  6.3115400170612332e-02 -2.1476127857681188e-02 1.1234693845697105e-02  6.2841719404259672e-02 -2.0527833853766803e-02 1.0450875365029885e-02  6.3787164407715771e-02 -2.0624792742418265e-02 1.0082889113148873e-02  6.3334267274208655e-02 -2.1833749994560774e-02 1.0943968822766527e-02  6.3029458402557206e-02 -2.0883545860499196e-02 1.0197149003200441e-02  6.3987324784759825e-02 -2.0969555370328272e-02 9.8253925970419233e-03  7.3785100034867226e-02 -2.3567823185037459e-02 8.2880081372971627e-03  7.3258154571727754e-02 -2.4013198948643056e-02 9.4950584806323297e-03  7.3832912374642623e-02 -2.3859720117047928e-02 8.0560489847770825e-03  7.3272179089008349e-02 -2.4322183064422159e-02 9.2710352872230582e-03  7.3872701355559955e-02 -2.4142628632322759e-02 7.8204404250274452e-03  7.3284356893298999e-02 -2.4618184544013055e-02 9.0438207073192164e-03  7.3917433598124374e-02 -2.4418102139656058e-02 7.5740088156190958e-03  7.3301642663580607e-02 -2.4903996583627228e-02 8.8065136818682235e-03  6.8151901928120623e-02 -2.2509958908813014e-02 1.1938000993999642e-02  6.7425421969686858e-02 -2.1605220831866029e-02 1.1418556191618157e-02  6.7280967856069171e-02 -2.2580950259324922e-02 1.2566917648963460e-02  6.7409831772946113e-02 -2.2949799524322304e-02 1.2219107340094430e-02  6.7577221911782184e-02 -2.1915752367621284e-02 1.1053956394674892e-02  6.8265769063190110e-02 -2.2863167376796938e-02 1.1591222110509605e-02  6.7726625619114689e-02 -2.2218558494806886e-02 1.0718094050249618e-02  6.8380525421892505e-02 -2.3198212400594786e-02 1.1269026339898949e-02  6.7537274500437242e-02 -2.3294481706502519e-02 1.1892904456289644e-02  6.8496360634650824e-02 -2.3522730115132718e-02 1.0957017198204194e-02  6.7874746979864495e-02 -2.2521717461286155e-02 1.0397311254522848e-02  6.7664599540171178e-02 -2.3624917264624189e-02 1.1576971345911697e-02  6.8612864939864696e-02 -2.3842924270758153e-02 1.0642884988241853e-02  6.8023931013959996e-02 -2.2828338694182906e-02 1.0078695676265096e-02  6.7791265776162304e-02 -2.3947609890159580e-02 1.1257056058514320e-02  6.8729989508826042e-02 -2.4165032105946695e-02 1.0315447756859473e-02  6.8176566786608411e-02 -2.3144026992561628e-02 9.7507798790607333e-03  6.7917574136272169e-02 -2.4269189474453692e-02 1.0921804394528492e-02  6.8847417782383749e-02 -2.4494798369925304e-02 9.9634937865972825e-03  6.8335991181016478e-02 -2.3475118978592370e-02 9.4038148174647521e-03  6.8044957325117852e-02 -2.4596884702863291e-02 1.0560666173771143e-02  6.8399605389570864e-02 -2.1672105284640000e-02 1.0819418862135275e-02  6.8542724840267050e-02 -2.1971965545500384e-02 1.0465038754301501e-02  6.8681895933947690e-02 -2.2268431008300293e-02 1.0139824129212738e-02  6.8820934421328736e-02 -2.2566078909572542e-02 9.8295433837782224e-03  6.8961990822106189e-02 -2.2870114515889845e-02 9.5214834609622465e-03  6.9107325066322237e-02 -2.3184396707759021e-02 9.2047236673937060e-03  6.9260832008814027e-02 -2.3510956171679104e-02 8.8699496275942615e-03  6.5134376003767161e-02 -2.0583312479013606e-02 1.1705338549640123e-02  6.4628898792124412e-02 -1.9790169619479738e-02 1.1076770587009824e-02  6.4145186205516153e-02 -2.0349753580316977e-02 1.2024682873999810e-02  6.4353523253950454e-02 -2.0636309818200971e-02 1.1663934519937868e-02  6.4821056338156741e-02 -1.9998657626395251e-02 1.0721630573190224e-02  6.5327449555258696e-02 -2.0863239041339660e-02 1.1333482028765419e-02  6.4548440343025065e-02 -2.0925566538184170e-02 1.1343781175555855e-02  6.5006401485065340e-02 -2.0228780402701516e-02 1.0409688840333373e-02  6.5513603053413250e-02 -2.1143987439755728e-02 1.1001845530265062e-02  6.4736842148990378e-02 -2.1223528739573894e-02 1.1044289941507406e-02  6.5187766474812323e-02 -2.0480257848136389e-02 1.0120678240552761e-02  6.5695719569331318e-02 -2.1433033997258176e-02 1.0690222002707713e-02  6.5369644582617487e-02 -2.0754096441719737e-02 9.8400307761375514e-03  6.5877554997430310e-02 -2.1735267533092073e-02 1.0383802131520027e-02  6.4925065385176242e-02 -2.1533958609724856e-02 1.0749893372894772e-02  6.5556382200499030e-02 -2.1052590305040433e-02 9.5556965076118213e-03  6.6062228477764218e-02 -2.2054398579304767e-02 1.0069568458217123e-02  6.5119956099748619e-02 -2.1861448148563230e-02 1.0448573136052032e-02  6.5753840998227300e-02 -2.1377251820188976e-02 9.2567582547206390e-03  6.6253454544071472e-02 -2.2391957320339047e-02 9.7359578122136730e-03  6.5323460322018689e-02 -2.2211507030524231e-02 1.0131313206298804e-02  7.1114587267190110e-02 -2.1215498506613799e-02 7.9409211555097042e-03  7.0991988385883414e-02 -2.0501100689539840e-02 7.1665203108702263e-03  7.0238883706973634e-02 -2.0502258177505773e-02 8.0389905608920179e-03  7.0450542473988020e-02 -2.0619620788016484e-02 7.7451592070495569e-03  7.1263385405965635e-02 -2.0560003202707136e-02 6.9195688042465635e-03  7.1335224869202088e-02 -2.1357172426699211e-02 7.6462116511957631e-03  7.1507093467998883e-02 -2.0670767166232732e-02 6.6927311554809948e-03  7.1536151463574116e-02 -2.1530185562722598e-02 7.3741971466273802e-03  7.0665066197012988e-02 -2.0778650954842284e-02 7.4805683627646048e-03  7.1731745167694622e-02 -2.1727361052543592e-02 7.1166413880274079e-03  7.1745268130299661e-02 -2.0820545865051727e-02 6.4782474807477475e-03  7.0884372701547280e-02 -2.0967823777005977e-02 7.2319065450540884e-03  7.1934446919049141e-02 -2.1943752909730645e-02 6.8635433128921911e-03  7.1995854066038950e-02 -2.1000375780780095e-02 6.2697140203837910e-03  7.1110647980409655e-02 -2.1184667537950952e-02 6.9897641160022511e-03  7.2157608490403674e-02 -2.2180580145752457e-02 6.6111954688646444e-03  7.2281513158780133e-02 -2.1203332773779903e-02 6.0696573539177024e-03  7.1347352744628167e-02 -2.1432776309085980e-02 6.7484958768616694e-03  7.2420398103988967e-02 -2.2446997738162396e-02 6.3575266450127069e-03  7.2566686288743118e-02 -2.1432254243793514e-02 5.8640049870368532e-03  7.1596635582284393e-02 -2.1717873446419247e-02 6.5045145490840919e-03  6.9348461410031328e-02 -2.4059143327370185e-02 1.2906801089518184e-02  6.9713505186262403e-02 -2.3244902422058792e-02 1.1703981018193301e-02  6.8751134577333173e-02 -2.3370576560356716e-02 1.2498866444127352e-02  6.8823887476829618e-02 -2.3744033289299166e-02 1.2181463714822488e-02  6.9780137970055042e-02 -2.3599604232856421e-02 1.1392763633765794e-02  6.9377908304927294e-02 -2.4441289399667207e-02 1.2627138510435770e-02  6.8900278264157941e-02 -2.4092274319867844e-02 1.1881090404599790e-02  6.9848457711728609e-02 -2.3934798843926082e-02 1.1099304391660634e-02  6.9411933074560450e-02 -2.4793569336820240e-02 1.2357973751678197e-02  6.8978297141378098e-02 -2.4422255079494044e-02 1.1585561918563258e-02  6.9918535862682707e-02 -2.4256792689892420e-02 1.0812400638592623e-02  6.9448324198154970e-02 -2.5123110429287217e-02 1.2089293790652557e-02  6.9056877227546318e-02 -2.4740474298481772e-02 1.1284278868441102e-02  6.9990217508640262e-02 -2.4571404891884956e-02 1.0521304403727382e-02  6.9485403019438563e-02 -2.5435859253260116e-02 1.1811950318624545e-02  6.9134996923824729e-02 -2.5053007950542425e-02 1.0966597835623232e-02  7.0063476928222915e-02 -2.4884306486669637e-02 1.0215604955463305e-02  6.9521517981377484e-02 -2.5736992009493288e-02 1.1516716614547258e-02  6.9212389708989477e-02 -2.5367027617179235e-02 1.0621730049932989e-02  7.0139175551323124e-02 -2.5200619787236093e-02 9.8844670655026199e-03  6.9555011673672507e-02 -2.6031140335685987e-02 1.1193627466666026e-02  6.2997322836343572e-02 -2.5290705403667367e-02 1.7741307960590369e-02  6.3427555746589578e-02 -2.4947247682880942e-02 1.7149326385839065e-02  6.2431797818987868e-02 -2.4487875011552720e-02 1.7319353153299064e-02  6.2685229330753128e-02 -2.4873215296762830e-02 1.7085143815850225e-02  6.3642836874947636e-02 -2.5350262707800924e-02 1.6936145864157898e-02  6.3212474122239945e-02 -2.5690851837225567e-02 1.7571020235678417e-02  6.2909303849266393e-02 -2.5219360182488458e-02 1.6853110958686794e-02  6.3826680957117091e-02 -2.5705393428037033e-02 1.6718504953171554e-02  6.3393979191760555e-02 -2.6039431011683586e-02 1.7392691259435343e-02  6.3115117788849581e-02 -2.5529390676592635e-02 1.6616501613498477e-02  6.3994507194551242e-02 -2.6019919418097837e-02 1.6491454064602052e-02  6.3557901394514102e-02 -2.6343544743264169e-02 1.7201811771710381e-02  6.3314631353582562e-02 -2.5806423175297254e-02 1.6368083776934824e-02  6.4156430245411344e-02 -2.6297330832205562e-02 1.6249245787600761e-02  6.3715476801669946e-02 -2.6606648976933614e-02 1.6994001487944676e-02  6.3518636294853187e-02 -2.6052597983584804e-02 1.6100835513259752e-02  6.4321668362690723e-02 -2.6539510117407492e-02 1.5986085425512976e-02  6.3876642475951650e-02 -2.6830572246474751e-02 1.6765186638804382e-02  6.3736754791974978e-02 -2.6269042510743905e-02 1.5807586960497940e-02  6.4499911151273681e-02 -2.6746082915673677e-02 1.5696846511248485e-02  6.4051394211352225e-02 -2.7015232261821742e-02 1.6511532988184332e-02  7.4204423221220006e-02 -2.4124160757876857e-02 9.9818385332203739e-03  7.3088978385244349e-02 -2.4188804195175516e-02 1.0749743790377134e-02  7.4075728041168881e-02 -2.4452686675708574e-02 1.0781883269996210e-02  7.3981649731974367e-02 -2.4792735578078796e-02 1.0638667366408958e-02  7.3057004583077484e-02 -2.4528189426658294e-02 1.0548719217575858e-02  7.4156429802071461e-02 -2.4460826309858984e-02 9.8078289225033734e-03  7.3883687117106342e-02 -2.5104803535656042e-02 1.0487583316856380e-02  7.3020332788092487e-02 -2.4845180386339979e-02 1.0349386383712232e-02  7.2952883494326701e-02 -2.5426444692272086e-02 9.9287596270105569e-03  7.3995670097636468e-02 -2.5344814470118718e-02 9.2402477109719064e-03  7.3694908972563811e-02 -2.5662026370988224e-02 1.0147864779551406e-02  7.4045715359962849e-02 -2.5067976482123944e-02 9.4424234705397254e-03  7.2984204245721399e-02 -2.5143399475656452e-02 1.0144754852899287e-02  7.3613511920894784e-02 -2.5912527233025052e-02 9.9513253663757843e-03  7.2931048709183058e-02 -2.5697926855058950e-02 9.6956047169936502e-03  7.3957826537456611e-02 -2.5607444892765108e-02 9.0185118481036549e-03  7.3546996719639560e-02 -2.6146264164397953e-02 9.7310819402278408e-03  7.2924598585832848e-02 -2.5961232611343060e-02 9.4396128950798956e-03  6.2718601932213985e-02 -2.0884861678401492e-02 1.3504113489858131e-02  6.2102378237354088e-02 -1.9953216441856356e-02 1.2725799464075290e-02  6.1748693075961002e-02 -2.0747047791699065e-02 1.3986579770631221e-02  6.1993478451274252e-02 -2.1073549624481484e-02 1.3643797115562916e-02  6.2322281770492156e-02 -2.0233105934266478e-02 1.2383029444095986e-02  6.2956266267282165e-02 -2.1216176637299848e-02 1.3155551111252250e-02  6.2214721019147962e-02 -2.1395265994214867e-02 1.3331240827998537e-02  6.2524554477521643e-02 -2.0521988562732518e-02 1.2076269929226294e-02  6.3172901465556944e-02 -2.1538969710085062e-02 1.2837978680373447e-02  6.2422799266657385e-02 -2.1716433859727255e-02 1.3036991444898656e-02  6.2718303693755501e-02 -2.0822736704233080e-02 1.1790427022799050e-02  6.3378509522392087e-02 -2.1860921335185145e-02 1.2536948549598192e-02  6.2629366648258036e-02 -2.2042705984566275e-02 1.2748131592097771e-02  6.3583385413083754e-02 -2.2187523086071807e-02 1.2239622057148392e-02  6.2845930614591830e-02 -2.2379668402308747e-02 1.2452174389998101e-02  6.3797371486382010e-02 -2.2523593009550161e-02 1.1933384221938351e-02  6.3086804987977169e-02 -2.2734277196178172e-02 1.2136839553193588e-02  6.4028584427018184e-02 -2.2874239287591278e-02 1.1606277473566433e-02  7.3238388022806147e-02 -2.3688890930515002e-02 9.7231263822631711e-03  7.2385659858209023e-02 -2.3727828060264012e-02 1.0436062048776108e-02  7.2404634495115083e-02 -2.4060777764580956e-02 1.0189545081775976e-02  7.2421120739313158e-02 -2.4376121579437571e-02 9.9529432416284608e-03  7.2438214109763754e-02 -2.4678194743598298e-02 9.7168093874611602e-03  7.2459387933713773e-02 -2.4970927410934946e-02 9.4731394508699284e-03  7.2488729935954482e-02 -2.5258960510254443e-02 9.2146171313836050e-03  7.3331387102872694e-02 -2.5183337781004272e-02 8.5535634916514679e-03  7.2532122989247536e-02 -2.5548233891517336e-02 8.9336069173903618e-03  7.3892225893480948e-02 -2.4934982345010608e-02 1.2664130043957516e-02  7.3306230869498931e-02 -2.5003925127099758e-02 1.2505691119812486e-02  7.2297616499215914e-02 -2.5272989387078726e-02 1.3417626796391510e-02  7.2104901381934483e-02 -2.5607879583312745e-02 1.3354182976129687e-02  7.3124068479862303e-02 -2.5339408854436550e-02 1.2438415372711696e-02  6.6065397369580225e-02 -2.3640304878879147e-02 1.4385007149297328e-02  6.4933056880999832e-02 -2.3053077218000248e-02 1.4451103698340378e-02  6.5209440957396003e-02 -2.3969634706853531e-02 1.5191366099572742e-02  6.5379278953840519e-02 -2.4382421634775487e-02 1.4900346703298315e-02  6.5126333444909285e-02 -2.3451304491154686e-02 1.4126659229189917e-02  6.6207552318861787e-02 -2.4049239908837877e-02 1.4077899607324957e-02  6.5535771517043928e-02 -2.4753389740158886e-02 1.4614857070257406e-02  6.5304789202695585e-02 -2.3815380428789328e-02 1.3816156868450443e-02  6.6342783977121095e-02 -2.4420480543253815e-02 1.3781424399981682e-02  6.5683688268098644e-02 -2.5091641550178099e-02 1.4326699766498559e-02  6.5474410490716950e-02 -2.4155200177680802e-02 1.3509044298086701e-02  6.6473103020412885e-02 -2.4763071323831903e-02 1.3485345871854649e-02  6.5828216045098406e-02 -2.5403479828344414e-02 1.4026982717395067e-02  6.5641385499197638e-02 -2.4477394003841479e-02 1.3194328367939013e-02  6.6600993141845380e-02 -2.5083790359058684e-02 1.3179508508303687e-02  6.5973820527938973e-02 -2.5692390127950958e-02 1.3705788340628721e-02  6.5811614875729452e-02 -2.4786360365007462e-02 1.2859466733353354e-02  6.6728796284622319e-02 -2.5387461630742927e-02 1.2852745667405218e-02  6.6123523999987152e-02 -2.5959190229006283e-02 1.3351518503497624e-02  6.5990190028961893e-02 -2.5083429047180882e-02 1.2489331903022108e-02  6.6857910686735800e-02 -2.5677579571694930e-02 1.2492801560223166e-02  6.8550392689992884e-02 -2.0503079412073306e-02 9.4017331663589620e-03  6.7513271751763165e-02 -1.9934080381276177e-02 9.4961366911675508e-03  6.7713809394325766e-02 -2.0762090691449801e-02 1.0313532582144992e-02  6.7887172102850460e-02 -2.1014803102289842e-02 9.9636954453305900e-03  6.7707249434728986e-02 -2.0107127543957961e-02 9.1757006636732971e-03  6.8727372074688667e-02 -2.0711447173580155e-02 9.0694251363747543e-03  6.8049782948511064e-02 -2.1274212404952687e-02 9.6472001241286603e-03  6.7887983828673254e-02 -2.0307013179721264e-02 8.8882670375406321e-03  6.8912202978186343e-02 -2.0936818537653716e-02 8.7671085582524469e-03  6.8211086127055898e-02 -2.1544783600967069e-02 9.3481898091038705e-03  6.8066810164048433e-02 -2.0531794308350001e-02 8.6194891241792269e-03  6.9101823164071818e-02 -2.1183576053251895e-02 8.4816583766404458e-03  6.8374867850941295e-02 -2.1829252551315816e-02 9.0543418729733000e-03  6.8250892162508237e-02 -2.0779955005371453e-02 8.3573389254639613e-03  6.9293746337042231e-02 -2.1452580759526645e-02 8.2023685709951936e-03  6.8545186745393352e-02 -2.2129354766881923e-02 8.7560716044493090e-03  6.8446894583034407e-02 -2.1048668020317785e-02 8.0922338980876276e-03  6.9484040116267048e-02 -2.1740519442690242e-02 7.9205700742684629e-03  6.8729292008747611e-02 -2.2449181129614075e-02 8.4456844592578750e-03  6.8664180217038837e-02 -2.1333463405743911e-02 7.8203960106329583e-03  6.9666964049557911e-02 -2.2025220664830810e-02 7.6238939722716812e-03  6.9315336124540952e-02 -2.5420205590710298e-02 1.4556667581708269e-02  6.9420120182420220e-02 -2.4748247433667013e-02 1.3665483875716580e-02  6.8451720961137774e-02 -2.5081641027532867e-02 1.4551042000492799e-02  6.8445631823115083e-02 -2.5485484469598647e-02 1.4335132378035863e-02  6.9405536748171445e-02 -2.5137850589671103e-02 1.3434334486677094e-02  6.9246525626098926e-02 -2.5808266277840799e-02 1.4388032241577755e-02  6.8445053039028189e-02 -2.5848074555863080e-02 1.4115514352027682e-02  6.9398305668756655e-02 -2.5492703431153080e-02 1.3204444605781554e-02  6.9186333852522333e-02 -2.6158503231555413e-02 1.4212332146027202e-02  6.8446521860422146e-02 -2.6177130726940185e-02 1.3887342318581044e-02  6.9393779798943234e-02 -2.5819448861691997e-02 1.2969455039760236e-02  6.9129653430970647e-02 -2.6475875046078637e-02 1.4025737624665335e-02  6.8446951890770172e-02 -2.6478008548904659e-02 1.3645147748457324e-02  6.9389427489372893e-02 -2.6123265410207996e-02 1.2722797649417571e-02  6.9072346366091289e-02 -2.6764505708070721e-02 1.3824144361164723e-02  6.8443282216643517e-02 -2.6754186311885714e-02 1.3383068995691576e-02  6.9382781635426966e-02 -2.6408113977433399e-02 1.2457726483149134e-02  6.9010254458490808e-02 -2.7027699834856783e-02 1.3603511106367391e-02  6.8432395634703810e-02 -2.7007607579912926e-02 1.3094758513117566e-02  6.9370771535828393e-02 -2.6676576750564809e-02 1.2166590648266031e-02  6.8938186072244570e-02 -2.7267953524437321e-02 1.3359897272022211e-02  6.5894528772806063e-02 -1.9881607311425541e-02 1.0452680364042455e-02  6.6086187496934221e-02 -2.0075481757707341e-02 1.0110321822052475e-02  6.6268921701335901e-02 -2.0295033093583957e-02 9.8068292512120524e-03  6.6449029076468394e-02 -2.0538717438310036e-02 9.5246144776732558e-03  6.6632004773017242e-02 -2.0806792209194125e-02 9.2498662775030455e-03  6.6822484350004846e-02 -2.1100008271945553e-02 8.9718356219581769e-03  6.7026249148524730e-02 -2.1418201269921479e-02 8.6803555864779086e-03  6.5306327820