<?xml version="1.0"?>
<VTKFile type="UnstructuredGrid"  version="0.1"  >
<UnstructuredGrid>
<Piece  NumberOfPoints="964" NumberOfCells="4200">
<Points>
<DataArray  type="Float64"  NumberOfComponents="3"  format="ascii">9.266978080709009 4.166478734772276 1.461046206063056  9.181768326342784 4.153615163234046 1.421440012136226  9.229812892498522 4.183596148910432 1.545720100192326  9.225001213600809 4.254451996702117 1.5337098141396  9.17400880206511 4.22344805382868 1.39674741981919  9.263232953275427 4.237649187408688 1.443965941454983  9.166191513624447 4.293112367824737 1.372141042290828  9.259310704723765 4.308623509436723 1.426907863363632  9.220046346096956 4.325110014086564 1.521687216944611  9.158361504909907 4.362663866517195 1.347575475591854  9.255343013428973 4.379477167119222 1.409873776556618  9.215048862955515 4.395650355535002 1.509669553804112  9.25138991077514 4.45025554072018 1.392837444509859  9.150549658893723 4.432124608178785 1.323006380251303  9.210072711207522 4.46610708926888 1.497648021670934  9.247514519552405 4.52096626322079 1.375778919970283  9.142773484578768 4.501502849637824 1.298418775276526  9.205180501720591 4.536489008118264 1.485609917042559  9.243839590198354 4.591600647925072 1.358677650669061  9.135065068563895 4.570767056322967 1.273755527870728  9.200454247405888 4.606764068328688 1.473540843889851  10.07529515858642 4.588804190898318 1.572167383108527  10.18734279175933 4.597340709250579 1.440385915394989  10.19048052480231 4.62315116289204 1.577567612528617  10.20322677820336 4.532893703818655 1.458658292381387  10.17338315597876 4.686649592230349 1.564504272108333  10.05853699500224 4.652641933159619 1.559718670842898  10.17139950385488 4.661542135690604 1.422067613438369  10.15590331993107 4.749846415798849 1.551386892948414  10.04152269317798 4.716279503271734 1.547198439681895  10.15513669380878 4.725478467217985 1.403675198670255  9.269189491781457 3.508897321559913 0.8031180492487491  9.25768892179509 3.611752859882385 0.8295791996146857  9.145845883275847 3.515332408103231 0.7995290042308756  9.257879442574032 3.591159013944347 0.9030199296974351  9.257365371026342 3.632442522871406 0.7560355214695431  9.27148984559658 3.520080738763534 0.7282625905232292  9.144601100666611 3.529813882812118 0.7243516710600192  9.257015439028381 3.653142027959643 0.682378739466903  9.273768396372759 3.531236871130363 0.6533002951650895  9.143357317738964 3.544271367389051 0.6490791275963017  9.256698162700216 3.673786383518599 0.6086226631729904  9.078913286895306 4.16165421612941 1.489446513310811  9.07010785135207 4.232318779340733 1.470506054456137  9.061302524302999 4.302757400917685 1.451647329064017  9.052494317521505 4.37307347295324 1.43281795448255  9.043700879581515 4.443286948769023 1.413993711230907  9.034930542952448 4.513396199521337 1.395162265350292  9.026205595900121 4.583375777423039 1.376273204786125  9.146965131682423 3.500911066242058 0.8746005811692209  9.155479653519558 3.632567464468122 0.9154551655364104  9.150135335912022 3.65990472547121 0.8434569430916788  9.144707309636424 3.687359636104954 0.7713909736938518  9.139270072511929 3.714828561206808 0.6992384443686697  9.895028105200479 3.68001602730062 0.5671743945447697  10.00100262995815 3.80446390192767 0.5895508466232299  9.895764005211769 3.881413824402447 0.6231581243087723  9.904275376617283 3.66324784925729 0.639283908347778  9.904790567054796 3.851921006923815 0.6922225734026943  9.992179912609018 3.828866673384242 0.5194155651032909  9.885700840397487 3.696639415200236 0.4949641805165525  9.886672161557451 3.910763468467415 0.5539779766139492  9.983224894082875 3.853048622630048 0.4491648369210692  9.876258274070858 3.71308293416067 0.4226163500545815  9.877480323503413 3.9399274210146 0.4846400098768958  10.06994304091309 4.49380901153485 1.452346765615136  10.09199153817808 4.524783279293167 1.584568404729446  10.08532106522823 4.42845203666774 1.469020483591491  10.05464940825493 4.559033743074187 1.435673867722463  10.03930265474628 4.624101760110408 1.418972197005224  10.02374335150811 4.688996292053606 1.402195455666293  8.899423312899888 4.089963643106974 1.389037022420234  8.863713397737618 4.042471805275261 1.302634377542037  8.797870702052752 4.083990365694747 1.421130434442841  8.886550248088632 4.156990641374469 1.357552877277795  8.851699482370449 4.106844196563225 1.26371754011219  8.784602704513889 4.150843498321073 1.391042412136392  8.873817110678383 4.223884167561258 1.326220950510992  8.839770892509003 4.171169007916782 1.224927231872021  8.771493836647528 4.217572563826119 1.361092085009697  8.861132847408005 4.290668652625956 1.294956135853485  9.709830332307032 3.823794050567598 0.9666357003417865  9.648245283248556 3.738219022088 0.9239155636741019  9.608621889501141 3.864054239279523 0.998680770138634  9.601288879938801 3.904555484004125 0.9344596655269886  9.639941735129559 3.767121951864278 0.8541595108126332  9.701136737130337 3.862253395761769 0.9018319396412059  9.593936413697417 3.945249395865455 0.8702637222390762  9.631645699387761 3.79621101891022 0.7843447833088278  9.692480433752417 3.900938489328498 0.8370236278065858  9.586558469922828 3.98598088538804 0.8060250242517496  9.623327025215527 3.825320396222184 0.7144454098117563  9.683811352705836 3.939672059923775 0.7721549639800285  9.579183068914251 4.026680416895712 0.7417097559662353  9.614998544718492 3.854383288390539 0.6444440506760259  9.675130852505237 3.978368932574671 0.7072028900948495  9.571824812665158 4.067290767891915 0.6772755531127559  9.606663788232426 3.883354071905691 0.5743098426542146  9.666439327454837 4.016973240235358 0.642139506382797  9.56449635840271 4.107773272330491 0.6126683513218356  9.598282579136688 3.912192064629251 0.5040106042991095  9.657714702716882 4.055445406162093 0.5769343914440616  10.25220847933876 4.338582036304633 1.513752386824482  10.19402553348503 4.297021069651896 1.427674194377788  10.11690508424155 4.297437889250502 1.502514823399019  10.17899653124337 4.361380415732214 1.403047755633393  10.23549912427386 4.403448301860593 1.495291700279745  10.10091210667655 4.362989191429574 1.485728011799619  10.16433945044198 4.425681428488844 1.378544770598367  10.21922561861116 4.468245919427577 1.476943745927814  10.14990555859217 4.489862883451361 1.354097318262167  10.1355661454433 4.553893007108742 1.329660792693061  10.12117187824201 4.617746109642188 1.305189616536775  10.10653738403085 4.68143867225604 1.280647484391596  9.715158869837284 3.369244500365312 0.8560541100976971  9.618602934891676 3.296005606244551 0.8637696253591386  9.608155286295787 3.446315446956611 0.8684578516419396  9.602196540739312 3.451472386826545 0.7957622568378793  9.614087581709997 3.289225988885098 0.7927936158182679  9.708649432437005 3.368167801250249 0.7843268312263274  9.702100442682838 3.367081604002637 0.7124293445202649  9.596166014908864 3.456636930544211 0.7228981766673946  9.931977610504457 3.763632443341138 0.8989465602554592  9.93207089939734 3.613033129566723 0.8549644709563538  9.833844746357018 3.697253874355352 0.8918430573322838  9.825738773122595 3.720033886581909 0.8208290426709774  9.922745689267213 3.629628062241274 0.7832060709439241  9.922833102748845 3.792880943092879 0.8301013101604666  9.913794933025677 3.822372287331357 0.7611952339182206  9.913496770347898 3.646418800997101 0.7112983073691115  9.817684300349331 3.743015601060513 0.7496905649905223  9.809640542591158 3.766048556050221 0.6784484761692664  9.801567882788312 3.789017973194629 0.6071099086176962  9.793434155164482 3.811848137717666 0.5356612630159732  9.785272124027697 3.834523712084394 0.4640890185533606  10.08902408794522 4.254683865402099 1.379782561778639  10.07659658454535 4.320004264103579 1.353919749078919  10.06441965986929 4.38528131671295 1.328171896239549  10.05240426039578 4.450485525473864 1.302468726160448  10.04045069770149 4.515584306308117 1.276760568182472  10.02844793140533 4.580561496172215 1.251004807904124  10.01632649283803 4.645421060093886 1.225156370679999  9.538555251148633 3.783715555751105 0.9618255678226483  9.510815287288803 3.895726327641137 1.029454562679061  9.504306686969974 3.940644754516817 0.9676687629886903  9.532127044442841 3.818292451933417 0.8942039767592611  9.525647576581834 3.853069766844835 0.8265556567622815  9.497746637752497 3.985731987535129 0.9059455079287062  9.519132087081164 3.887877311962308 0.7588468551999074  9.491166847574698 4.030848682172453 0.8442064428207182  9.512619532575632 3.922650601423812 0.6910521802925285  9.484592737314092 4.075925379686264 0.7823980704357012  9.506134174363089 3.957334689941288 0.6231387383706997  9.478047760834281 4.120920302916597 0.7204733530201353  9.499696902194195 3.991894993408811 0.5550499522560182  9.471564862000713 4.165816831685881 0.6583762441264802  8.937891653525924 3.873147037185807 0.99035534581558  9.034554934055157 3.915502220735912 1.004895588240891  8.980800312447553 3.988286332906864 1.078490857238169  9.043590744131656 3.866958877111269 1.064997055030277  8.970724464316069 4.04326518491498 1.024682073814245  8.928623904595911 3.919323813320463 0.9284327611646725  9.025509939130059 3.964131042062676 0.9448913276598406  8.960658398187778 4.098223245013783 0.9709104302362989  8.919361636107967 3.965509834271912 0.8665197241212231  9.016466288604068 4.012762854803007 0.8849006886806656  9.532402721561937 3.538606498418149 0.8833431558110798  9.451363461721193 3.455144254160854 0.8753570769054617  9.447422577540584 3.606439982722882 0.9032328225090764  9.444196610461914 3.62432058763661 0.8301143587798048  9.448990853873999 3.461340503099183 0.8017195160870533  9.528449276261686 3.552111880505969 0.8102980482707963  9.440881543165981 3.642309242908236 0.7568506132109277  9.446508280396964 3.467551782788941 0.7279457341189463  9.524425343078692 3.565696957619563 0.7370846954029078  9.437527297012492 3.660302491890179 0.6834713171827922  9.443996109355979 3.473719891527717 0.654055306
[...]
<PointData  Vectors="f_16"> 
<DataArray  type="Float64"  Name="f_16"  NumberOfComponents="3" format="ascii">1.5054966568333626e-02 -2.3967923662883725e-03 -3.0570403179593004e-03  1.5798728710658221e-02 -2.3700141770203026e-03 -2.9797721877094859e-03  1.5402447312602640e-02 -3.2817676329819777e-03 -2.7041874640316137e-03  1.5007618779601783e-02 -2.8028408367459382e-03 -2.1427460570359819e-03  1.5328936194536019e-02 -1.8135769236807791e-03 -2.5998012764810816e-03  1.4653404033965881e-02 -1.8703659339116625e-03 -2.5860684954958049e-03  1.4809696577277093e-02 -1.3806587682295205e-03 -2.1969005410385459e-03  1.4178919408420169e-02 -1.4563430698932445e-03 -2.1291577891675174e-03  1.4555050515892251e-02 -2.4248246660756086e-03 -1.6073091090774306e-03  1.4293339330621019e-02 -1.0276614125069997e-03 -1.7803800133239351e-03  1.3691476611075308e-02 -1.1153227085043858e-03 -1.6659233115628128e-03  1.4084892124429824e-02 -2.1121915748194419e-03 -1.0762785130631748e-03  1.3216877981748811e-02 -8.2685379298685663e-04 -1.1879963051696545e-03  1.3789466162616601e-02 -7.3389183625958488e-04 -1.3418063228709664e-03  1.3625482415692242e-02 -1.8491736066989593e-03 -5.3713420268538354e-04  1.2773699368122770e-02 -5.8033346421392244e-04 -6.8812053565309162e-04  1.3304201777617585e-02 -4.8999901663332500e-04 -8.7490271395520398e-04  1.3197543430807292e-02 -1.6292857254410432e-03 1.9757942462639303e-05  1.2385678398325078e-02 -3.7526846596496355e-04 -1.6358464968995942e-04  1.2842454807234385e-02 -2.9670273531117890e-04 -3.8026559773615736e-04  1.2823925533594150e-02 -1.4569381779907357e-03 5.9967731695940703e-04  7.3946250402740837e-03 8.6470345481509474e-04 -1.4885333575681398e-03  6.5712213564969877e-03 2.0639264034419541e-03 -1.9914261503448309e-03  6.4892856199476609e-03 1.3973727369402708e-03 -1.4608593039086048e-03  6.8693755489162801e-03 1.8477161673813121e-03 -2.2622203880957904e-03  6.1399749638512526e-03 1.5415084616996516e-03 -1.1591850407193340e-03  7.0082507711692671e-03 1.0335799553451385e-03 -1.1501285919912790e-03  6.2677746020963192e-03 2.2486331241086590e-03 -1.7160010711341608e-03  5.7818888589646986e-03 1.6554353807199885e-03 -8.5179107490285266e-04  6.6297339151266382e-03 1.1920039852856767e-03 -8.0303954139205366e-04  5.9556601135381569e-03 2.4049268778988829e-03 -1.4355656047980508e-03  1.7143098178749972e-02 -7.9819723226870617e-04 -3.6454454748997391e-03  1.6854081403435903e-02 -5.5145929626913121e-04 -4.2264178074423071e-03  1.8189011481342832e-02 -1.4904380683534470e-03 -3.9086955565878437e-03  1.6956762155041293e-02 -3.5541283631000334e-04 -3.5949907971690688e-03  1.6684773443886473e-02 -7.2894124586047151e-04 -4.7250800109547939e-03  1.7058147367581690e-02 -1.1339032429437915e-03 -4.1216518070967692e-03  1.8110804778384594e-02 -1.7907903532393093e-03 -4.3932198800465932e-03  1.6502434516732688e-02 -9.0443812245755758e-04 -5.1362996191736329e-03  1.6954454510487559e-02 -1.4530425445951909e-03 -4.5290295948244271e-03  1.8029920683127726e-02 -2.0814393579230948e-03 -4.8026095654067581e-03  1.6329544788570394e-02 -1.0864782888506340e-03 -5.4853133232639559e-03  1.6756047121992506e-02 -3.4162217368879284e-03 -2.5124914423461245e-03  1.6247796966483145e-02 -2.8990894930420808e-03 -2.0562776477479369e-03  1.5692527319153608e-02 -2.5012790961122947e-03 -1.5766700146375137e-03  1.5148960071742964e-02 -2.1820147768208628e-03 -1.0874416036691344e-03  1.4618187527121631e-02 -1.9233121480101496e-03 -5.8126786972208049e-04  1.4101464631409818e-02 -1.7180809887618696e-03 -5.3476883376132491e-05  1.3597249234725510e-02 -1.5623934832800026e-03 4.9963515647150514e-04  1.8228182514672033e-02 -1.1638551830647978e-03 -3.2774455238802312e-03  1.7801098652661603e-02 -9.0491361156906181e-04 -3.8855945770953355e-03  1.7581190592638778e-02 -9.8464334743495916e-04 -4.5200059521909195e-03  1.7366407402625197e-02 -1.0782691713575726e-03 -5.0006547047030114e-03  1.7157229285748938e-02 -1.1823218781809421e-03 -5.3881419519611401e-03  1.1023589309829116e-02 8.8959666823762917e-04 -5.8488629724330870e-03  9.8855470535874346e-03 1.6414736532596042e-03 -6.2526909191802406e-03  1.0439986542474411e-02 1.8510129508630187e-03 -6.2107363086110973e-03  1.1201395640577198e-02 1.1041076467488979e-03 -5.5370236385807649e-03  1.0617880226732017e-02 1.8876101661277215e-03 -5.9447302661657982e-03  9.7349051256314777e-03 1.5373375450883837e-03 -6.4842097615466637e-03  1.0845879557254313e-02 6.6576322270593636e-04 -6.1136524821161211e-03  1.0274207090436849e-02 1.7978723389067627e-03 -6.4299727084641475e-03  9.5917836846426477e-03 1.4168199556740784e-03 -6.6699133559515733e-03  1.0652622389477511e-02 4.3420124889569903e-04 -6.3460942276509051e-03  1.0115335292808943e-02 1.7265429495886017e-03 -6.5970887666267596e-03  7.9127228818825172e-03 1.3539937367985353e-03 -2.3443417159751167e-03  7.7707063486377008e-03 6.7417017078953267e-04 -1.8257463135369577e-03  8.2554310152415222e-03 1.0983698292705024e-03 -2.6562193196271624e-03  7.5790905103124365e-03 1.5816885302507968e-03 -2.0342472783614501e-03  7.2404825046600675e-03 1.7871582433470847e-03 -1.7173863268356571e-03  6.9003558028718224e-03 1.9893523657215739e-03 -1.3838494644369693e-03  1.8798153292530449e-02 -3.8139913443316791e-03 -2.6262544618140720e-03  1.9281052472069311e-02 -3.5573877271021888e-03 -2.9630787227034748e-03  1.9895217421789138e-02 -4.8076315963887306e-03 -2.2771206173129899e-03  1.8121686142888817e-02 -3.2941738168772812e-03 -2.3554349999328249e-03  1.8542805517530632e-02 -3.0241808700759072e-03 -2.8111152406415938e-03  1.9161926907057602e-02 -4.3176980749889560e-03 -1.9785145208837912e-03  1.7439577773896511e-02 -2.8645009783440866e-03 -2.0202757933721273e-03  1.7844223100925569e-02 -2.5885193586261440e-03 -2.5978156307435774e-03  1.8428957757921256e-02 -3.8994319443340203e-03 -1.6130146013879729e-03  1.6791154913052671e-02 -2.5146938166590712e-03 -1.6621145432465358e-03  1.2761014052178070e-02 1.4695818221732132e-03 -4.5490232213800073e-03  1.3531189449845217e-02 1.3076242872491410e-03 -4.3263510868639353e-03  1.3329969495478294e-02 1.1841720622654572e-03 -4.5243748567345317e-03  1.3043029702938753e-02 1.4050786014751665e-03 -4.9577903705971052e-03  1.3271195215156463e-02 1.2853787448326662e-03 -4.8478326149366761e-03  1.2475698453239547e-02 1.6180686721421731e-03 -5.0136286592127200e-03  1.2758441587293919e-02 1.5861083383024281e-03 -5.2882482430596529e-03  1.3042241604494938e-02 1.2522669088215156e-03 -5.2691033133287005e-03  1.2214135545882325e-02 1.7322167436281978e-03 -5.3822294115107106e-03  1.2484350358641665e-02 1.7306648914397777e-03 -5.5402705803249876e-03  1.2830447191230727e-02 1.2112372946252623e-03 -5.6168261657125809e-03  1.1969153295002803e-02 1.8225911801108264e-03 -5.6720270569925431e-03  1.2223735139784987e-02 1.8444304097214692e-03 -5.7301483005099997e-03  1.2630296139372665e-02 1.1559735014150720e-03 -5.9069853747964361e-03  1.1738255748024595e-02 1.8915416685806926e-03 -5.8996638770363154e-03  1.1980674303243295e-02 1.9314878534588871e-03 -5.8707812270957747e-03  1.2434713608976862e-02 1.0830919130682423e-03 -6.1528151026060615e-03  1.1518449430523601e-02 1.9389643348806400e-03 -6.0762094915080625e-03  1.1756221183689144e-02 1.9953420798505231e-03 -5.9745838087557450e-03  1.2228366003525159e-02 9.9366533658270129e-04 -6.3704456220130337e-03  1.1305488733003388e-02 1.9634210177210108e-03 -6.2152444265398347e-03  7.7624612684159466e-03 9.8017686490733903e-04 -3.0115315121675324e-03  8.1533428834951165e-03 1.1370137443203524e-03 -3.3880919576477000e-03  8.9203533140767496e-03 4.8418383058907154e-04 -3.2662505678897466e-03  7.8756884902076666e-03 1.5139834589255915e-03 -3.1974096615020407e-03  7.4777409790797470e-03 1.3104701086898449e-03 -2.7936776791255397e-03  8.5981608607117316e-03 8.0891587413717172e-04 -2.9680047995038071e-03  7.5829595696252491e-03 1.8485193197772662e-03 -2.9690005084599107e-03  7.1759846451603703e-03 1.5990692605879365e-03 -2.5341884729040052e-03  7.2927412297430312e-03 2.1419263485048631e-03 -2.7337189735910264e-03  7.0166992192159678e-03 2.3989878793362171e-03 -2.4961715741045609e-03  6.7429395684371297e-03 2.6283486065361707e-03 -2.2469060036661246e-03  6.4622013897692445e-03 2.8395959528043375e-03 -1.9796723113801769e-03  1.4443093957593117e-02 1.3404462595879372e-03 -2.0819670313490164e-03  1.5316946083044363e-02 1.0931834861374525e-03 -1.2172750088003353e-03  1.4926710693821389e-02 1.0848214642817547e-03 -2.5510446493979826e-03  1.4762302771829173e-02 5.4310582586076877e-04 -3.0204447955126858e-03  1.5203600264509813e-02 3.5341270827032954e-04 -1.5347808849308019e-03  1.4233900398674282e-02 7.0035888726087284e-04 -2.4763417748673573e-03  1.4067576599704798e-02 1.1963431532024061e-04 -2.8399303502097701e-03  1.4632950188319449e-02 5.5536349532716408e-05 -3.4492460214847879e-03  1.1278210427432751e-02 1.8911473643172109e-03 -4.7396971883669221e-03  1.1894729977763958e-02 1.7561278586965333e-03 -4.2279120552518199e-03  1.2321951919866179e-02 1.7157896555766634e-03 -4.3847635204905724e-03  1.2059355903658113e-02 1.6030951731996590e-03 -4.9058393228440540e-03  1.1620121151200808e-02 1.5286292766200035e-03 -4.7391013030906419e-03  1.1031988213722310e-02 1.9093111486738002e-03 -5.2301478030175718e-03  1.0812934494570525e-02 1.9075982427109671e-03 -5.6219925126071444e-03  1.1394709696488658e-02 1.3148058624229502e-03 -5.1709693532322768e-03  1.1830600700104929e-02 1.4980965673571701e-03 -5.3338754185487929e-03  1.1627573603750160e-02 1.3871510918037075e-03 -5.6924106615795864e-03  1.1440040564532095e-02 1.2651176314736070e-03 -5.9967142971092489e-03  1.1259169609708962e-02 1.1270211220110106e-03 -6.2558637068123590e-03  1.1076649964578323e-02 9.6548862977371313e-04 -6.4827188848705494e-03  8.9459776524327666e-03 1.0089514574937576e-03 -3.6709495927899709e-03  8.6544526455163244e-03 1.4235536553919694e-03 -3.4640603625953480e-03  8.3374876166953105e-03 1.7817484779601581e-03 -3.2348892277362499e-03  8.0262409144080653e-03 2.0947906628870894e-03 -3.0027229003650757e-03  7.7280003722974043e-03 2.3732240872173516e-03 -2.7638053124875916e-03  7.4377802624414685e-03 2.6264585944527200e-03 -2.5101307081199669e-03  7.1572094408170195e-03 2.8630937751653630e-03 -2.2309659312318556e-03  1.4150706786439659e-02 9.7422920676667601e-04 -4.3341111907422968e-03  1.3938582432476853e-02 8.3043602797201201e-04 -4.4838207160139663e-03  1.3621712376176964e-02 1.1361501976787697e-03 -4.8717352835351817e-03  1.3888965155024283e-02 1.0627620331227433e-03 -4.8411511534668479e-03  1.3628009026415066e-02 1.1338792581769409e-03 -5.2471938254587298e-03  1.3297797960049429e-02 1.3823593795391895e-03 -5.1543171266584713e-03  1.3372017763214936e-02 1.1841411051766791e-03 -5.5681109727415343e-03  1.2978308823286711e-02 1.5825697725059334e-03 -5.3573131418337893e-03  1.3127239579517098e-02 1.2125369748367497e-03 -5.8227116822347682e-03  1.2671453450547238e-02 1.7460329374547440e-03 -5.4966608332112973e-03  1.2898929824328744e-02 1.2200202224246467e-03 -6.0256482220737611e-03  1.2383165093011654e-02 1.8797836604403119e-03 -5.5835516053507860e-03  1.2691290673222872e-02 1.2182803620446924e-03 -6.2057298262369514e-03  1.2118857249225240e-02 1.9884978700258058e-03 -5.6235950152443573e-03  1.8640934073797199e-02 -1.8534821761908001e-03 -4.3707596584893179e-03  1.7567634211067114e-02 -1.1426905960630295e-03 -4.4362493399027958e-03  1.7750294796307273e-02 -1.5178226395091200e-03 -4.0493417892965627e-03  1.8099133680735627e-02 -1.5190435123541208e-03 -4.1071872951343145e-03  1.7181948503934286e-02 -1.1424872244657801e-03 -4.1396826472998426e-03  1.8137533753605280e-02 -1.5785005553267449e-03 -4.6294400271019000e-03  1.7076209944385991e-02 -8.4741512161507859e-04 -4.6611236268641106e-03  1.6637607860411414e-02 -8.3530651186058686e-04 -4.1577476133110624e-03  1.7663631279007937e-02 -1.3569638553905909e-03 -4.8054047640240724e-03  1.6608276068694281e-02 -6.1073905455397365e-04 -4.8039648563171005e-03  1.5093071233501077e-02 8.5773858712364943e-04 -3.1837516606838118e-03  1.5928436309219068e-02 5.0275147765054603e-04 -2.5606600496782882e-03  1.5443097077854606e-02 5.7486186858312922e-04 -3.5720399248444267e-03  1.5311125444605955e-02 3.2618043094179481e-04 -4.1416897466371918e-03  1.5878244919269112e-02 -1.3414114062983207e-05 -3.0627683017168867e-03  1.4946936405121699e-02 4.7725388624512060e-04 -3.7246301027552141e-03  1.5153133274909001e-02 1.0991424970007178e-04 -4.6260014285264594e-03  1.5808762005287615e-02 -4.7325305094398642e-04 -3.5124975512820043e-03  1.4796731818872691e-02 1.4395628463421782e-04 -4.1987469845845100e-03  1.4988989472273343e-02 -9.7905813473828736e-05 -5.0354365542105515e-03  1.5734312469167653e-02 -9.0595639666038767e-04 -3.9139789815683945e-03  1.4652426193834974e-02 -1.6686940301634511e-04 -4.6152719547123081e-03  1.4834258834053243e-02 -3.1061555924119397e-04 -5.3879039140362151e-03  1.5669546983728855e-02 -1.3331929861408074e-03 -4.2773431608416736e-03  1.4518005889662806e-02 -4.7371065871289002e-04 -4.9856843243894647e-03  1.4703286219293142e-02 -5.3723423219376935e-04 -5.7009676164424209e-03  1.5629559086317170e-02 -1.7723632487174508e-03 -4.6198306146121564e-03  1.4396258334530322e-02 -7.8903516352770158e-04 -5.3296850707199852e-03  1.4613026569937430e-02 -7.7967484974837892e-04 -6.0039290969181071e-03  1.5632986233944973e-02 -2.2377067154270443e-03 -4.9689376232132359e-03  1.4296838735941115e-02 -1.1280676747572778e-03 -5.6611570113381717e-03  1.6315864145169827e-02 1.0686888519111533e-04 -3.2402665241187205e-03  1.5958733480207921e-02 1.9473609663278054e-04 -3.8476529659481375e-03  1.5810440727010214e-02 7.1730782196914450e-05 -4.4487966162096585e-03  1.6253967174603933e-02 -2.1456670696178926e-04 -3.8219889784827906e-03  1.5608309077377274e-02 -3.8825318405270054e-05 -4.9231425333856821e-03  1.6130902804780776e-02 -5.0042906936346521e-04 -4.3154404916364393e-03  1.5395258971620012e-02 -1.5517698728262968e-04 -5.3130232857331898e-03  1.5989738136651697e-02 -7.6990807797910378e-04 -4.7354042752334432e-03  1.5192257609128323e-02 -2.8421749532711366e-04 -5.6412393925675420e-03  1.5857672103730590e-02 -1.0391844684867169e-03 -5.1001143663611404e-03  1.5017282496678112e-02 -4.2886471718624327e-04 -5.9235896319401130e-03  1.5759712624708568e-02 -1.3185384634500060e-03 -5.4248170679529837e-03  1.4901586092870284e-02 -5.9247698469782912e-04 -6.1695784129609825e-03  1.5740876627945925e-02 -1.6113562551364881e-03 -5.7268434024894763e-03  1.5787644554301723e-02 8.1652771841499508e-04 -1.7434099924235093e-03  1.5714550952624026e-02 1.6125190135629852e-04 -2.1490321156124054e-03  1.4794536577340327e-02 5.7819453637533420e-04 -4.3736147897339098e-03  1.4729794173906912e-02 3.0830392051353742e-04 -4.3795348268330014e-03  1.4353937477735433e-02 7.1064924995047833e-04 -4.6935413022600033e-03  1.4509514012303560e-02 7.7732325795323951e-04 -4.8593277816688122e-03  1.3972553146671495e-02 1.0291944150946583e-03 -4.9070950326363530e-03  1.4196548177005670e-02 9.3211605231414301e-04 -5.2241797789023088e-03  1.3597039714512841e-02 1.2867644051670708e-03 -5.0421958581982895e-03  1.3883069890626933e-02 1.0534308048149679e-03 -5.5009164726529695e-03  1.3233055600650724e-02 1.4983853254225774e-03 -5.1143497854234492e-03  1.3581225106815599e-02 1.1464365082101183e-03 -5.7097625652762600e-03  1.2885957252469021e-02 1.6732931482358925e-03 -5.1320379758796513e-03  1.3301785093588227e-02 1.2142860397619769e-03 -5.8644021991245748e-03  1.2566334210134545e-02 1.8202482708048002e-03 -5.1004550979419664e-03  1.3065046786173030e-02 1.2589652230697106e-03 -5.9798796934508467e-03  7.5551126042033906e-03 2.1648181476608889e-03 -4.3861587891231117e-03  8.4939461165375804e-03 1.9753724826069470e-03 -4.3830760398652288e-03  7.8568216977645024e-03 1.9535006580303975e-03 -4.1243326551619825e-03  7.6448011508803782e-03 2.3776029465997681e-03 -4.1357871401851180e-03  8.2766939865855510e-03 2.4026615092054117e-03 -4.4630620891705948e-03  7.3948448455987926e-03 2.5629626011436698e-03 -4.5320796258645516e-03  7.4417407618778001e-03 2.7443133308673279e-03 -4.1132239094124135e-03  8.0658965347397103e-03 2.7621973369278820e-03 -4.5011481283051486e-03  7.2460077094562841e-03 2.9038342451899917e-03 -4.6356007242989074e-03  7.2520339686552382e-03 3.0590804769054939e-03 -4.0596812134090932e-03  7.8676363298307763e-03 3.0707042597954153e-03 -4.5032772645308599e-03  7.1106848798406942e-03 3.1931134888646983e-03 -4.6985050876700817e-03  7.0746908791502281e-03 3.3326764562685829e-03 -3.9781349659990806e-03  7.6842603124909307e-03 3.3397501468767975e-03 -4.4729139728760586e-03  6.9884930414938094e-03 3.4414829585355938e-03 -4.7240942873434206e-03  6.9080325150651127e-03 3.5744181422755652e-03 -3.8714972055769259e-03  7.5170487899556817e-03 3.5796487892794035e-03 -4.4125691932914634e-03  6.8780464562776230e-03 3.6585915068955283e-03 -4.7166123723344170e-03  6.7516008010396157e-03 3.7967738247280777e-03 -3.7449769593398017e-03  7.3719596375820592e-03 3.7967329165053995e-03 -4.3253031746509152e-03  6.7771530368541857e-03 3.8670771060038112e-03 -4.6885860795057828e-03  1.6976902186154070e-02 -2.5835211830147879e-03 -3.0246996151552003e-03  1.6418423234829949e-02 -2.0133403863224599e-03 -2.7794716019593421e-03  1.5831301039562276e-02 -1.5486201739954657e-03 -2.4761162142377018e-03  1.5263038761097834e-02 -1.1728199222811519e-03 -2.1470266975830176e-03  1.4705604096861641e-02 -8.6557869072349542e-04 -1.7885078702565903e-03  1.4154891681206967e-02 -6.1517545870794330e-04 -1.3968245023227865e-03  1.3610682749880582e-02 -4.1163360647807122e-04 -9.7214851464032161e-04  8.2270951154362823e-03 2.1535382401537953e-03 -4.6102731586766593e-03  8.0578732555482910e-03 2.5392944356179311e-03 -4.8006811990898507e-03  7.8818622308848389e-03 2.8590072675816545e-03 -4.9435631874084583e-03  7.7182689450024308e-03 3.1287344256483315e-03 -5.0408995185336715e-03  7.5708522657696488e-03 3.3603917817868244e-03 -5.0966682603288578e-03  7.4425569342681510e-03 3.5656740063640356e-03 -5.1151469987402607e-03  7.3431969553298670e-03 3.7638274570618519e-03 -5.1033076137478187e-03  1.4522805128608833e-02 -4.0344402746828517e-04 -3.8371495238643341e-03  1.4424706350108556e-02 -8.5612204981397235e-04 -4.1927824987868512e-03  1.4330450340477681e-02 -1.3223732345987959e-03 -4.5292757231513905e-03  1.4216411327506695e-02 -1.8249949645495229e-03 -4.8855546327488449e-03  1.6186703184061121e-02 -1.2836536823863346e-03 -5.7832013480061967e-03  1.6105685263611336e-02 -1.5087506646070698e-03 -6.0267674488710277e-03  9.6293851956035809e-03 3.2766125993410693e-04 -3.4811862666354076e-03  9.3050953966710009e-03 6.8280434112342353e-04 -3.1603426050699711e-03  8.9497732050885688e-03 9.9582600697238123e-04 -2.8343968653420904e-03  8.5987052569869282e-03 1.2750100361708871e-03 -2.5148280644900515e-03  8.2560446586505912e-03 1.5287977447502969e-03 -2.1926741772833810e-03  7.9159438660323465e-03 1.7677429553137830e-03 -1.8546315237413756e-03  7.5743265280161648e-03 1.9935322613439540e-03 -1.4900177858951514e-03  1.5555084485510550e-02 9.6867082909284980e-05 -4.3741774547732962e-03  1.5196376490126859e-02 4.0217761443083578e-04 -4.7993202372455133e-03  1.4829680057943037e-02 6.2942591897670981e-04 -5.0985790017946181e-03  1.4468555852974029e-02 8.0931134944117722e-04 -5.3105986516292667e-03  1.4118760293741851e-02 9.5247538475251093e-04 -5.4546507015933859e-03  1.3785767039158764e-02 1.0625515743176244e-03 -5.5409726091235102e-03  1.3475675241856690e-02 1.1386031457455122e-03 -5.5717779219398985e-03  9.2780642664831523e-03 1.9402482618459292e-03 -4.5929586535140903e-03  9.0433789942955794e-03 2.3566302760206301e-03 -4.7320174215417961e-03  8.8174193217292977e-03 2.6996555101216819e-03 -4.8205030662248479e-03  8.6030028165217237e-03 2.9923542977855220e-03 -4.8643409582724813e-03  8.4047778516079235e-03 3.2479813124080235e-03 -4.8685853488395449e-03  8.2258234164994185e-03 3.4753508266412423e-03 -4.8371870908269577e-03  8.0692303984436237e-03 3.6761053831266474e-03 -4.772829