<?xml version="1.0"?>
<VTKFile type="UnstructuredGrid"  version="0.1"  >
<UnstructuredGrid>
<Piece  NumberOfPoints="933" NumberOfCells="3967">
<Points>
<DataArray  type="Float64"  NumberOfComponents="3"  format="ascii">4.175382251215987 1.89066375862255 1.144366198394927  4.313284334003245 1.95468364794356 1.106753064570696  4.287614506885986 1.829307452007339 1.165007799849791  4.284912375386953 1.805585176997481 1.112407859812531  4.311323540088407 1.930539169255838 1.053571194242713  4.171890653569598 1.866609157204545 1.091800203606474  4.168364479207303 1.842544222456423 1.039252785929369  4.309371829710147 1.906404750164555 1.000392487616996  4.282192576205251 1.78186608842668 1.059823247876976  4.16482307413039 1.81848097355563 0.9867364924676982  4.307424935169019 1.882281016172825 0.9472370215204715  4.279467639224284 1.758152344116575 1.007264227228767  4.161283360985188 1.794415780014712 0.9342539410393367  4.305478056876718 1.858155126212672 0.8941157115568364  4.276749072752347 1.73443750465004 0.9547367328162232  4.274047902031289 1.710709729549123 0.9022383728245272  4.303527175555101 1.834007721261991 0.8410319034833015  4.15776291719644 1.770342048045877 0.8818051377582298  4.27137484032178 1.686959915350061 0.849761111743159  4.301565867489618 1.809818242556465 0.7879790960280576  4.154286378044515 1.746253364326318 0.8293729132263149  4.786983214811 1.884382493512087 1.136928227852321  4.93053526947514 1.974278757717681 1.103738957629154  4.918641539883173 1.825513181575037 1.159212577780355  4.9189268104954 1.80361276479185 1.104190297393644  4.93121306909751 1.953886971893096 1.048330970320182  4.787735379935856 1.863156345683027 1.082395302734342  4.931917764285224 1.933602713808838 0.9929154703486526  4.78853528553343 1.842012900292067 1.02785440192556  4.91922538501619 1.781814266578224 1.049166729426529  4.789361040803463 1.820912176451162 0.9733274509871975  4.932637487215899 1.913384574854575 0.9375362973911328  4.919538122035306 1.760060157856438 0.9941538723866663  4.790197925639892 1.799815535276468 0.9188311513436032  4.933364214295916 1.893175493475659 0.8821969533341009  4.919862999122697 1.738310292134182 0.9391690015900327  4.791033157842948 1.778683081514852 0.8643789012579338  4.934089143802618 1.872925179651368 0.8269227385862782  4.920203343792782 1.716523236547463 0.8842295675230211  4.791854648643156 1.757470695748378 0.8099931187107831  4.934815738329742 1.852571999538611 0.7717419977978707  4.92057502102533 1.694648573667344 0.8293492615991598  4.787693440728455 1.436447479447946 1.355640162527779  4.830497983474356 1.572337287926745 1.2736277708947  4.926644668154853 1.494254832607077 1.324823313562851  4.927832935987353 1.461287226502877 1.27328216614505  4.830756441263663 1.543221733039629 1.220913930511865  4.788520141165895 1.402032942557866 1.30524580768972  4.831018360987263 1.514153581166387 1.168184327001157  4.789346081729216 1.367648299097623 1.254849221064963  4.929027081085 1.428359626546463 1.221724580321171  4.83129040867338 1.485106366858153 1.115458943399509  4.790180301342728 1.333278920166104 1.204459147314449  4.930227405559791 1.395446593314772 1.170156797965787  4.831583443766472 1.456060727461989 1.06274691280107  4.791036846968423 1.298913649617526 1.154083414909672  4.931444216305365 1.362529824733585 1.118588148315609  4.831910241787657 1.427000967022855 1.010055848612902  4.791927751916715 1.26454456938041 1.103729924359624  4.932686171432285 1.329594088075648 1.067023231685432  4.832282564658055 1.397908815165248 0.9573869403834606  4.792851752131771 1.230161720837338 1.053402848478583  4.933965118983044 1.296635857738522 1.015470796075812  4.78599486165572 2.023061793146026 1.082524463706253  4.894405497906132 2.101677550971678 1.057620330608495  4.895978814888014 2.081391306284647 1.001841604182173  4.787569576296042 2.002124784358094 1.027537175457687  4.89759029147333 2.061223216552628 0.9460836282988559  4.789202592880151 1.981285979116597 0.9725627473397975  4.790864905241028 1.960498541102514 0.9176094053394569  4.899221538169881 2.041123121979065 0.8903517723862977  4.900854844509192 2.021041339676754 0.8346686302438545  4.792531748614952 1.93972347410594 0.8627050646639375  4.902470702141046 2.000923657905195 0.7790650167617523  4.794179000234265 1.918912872925146 0.8078689591053233  4.904056002385256 1.980699422187433 0.723581879406672  4.795777236717369 1.898007180447521 0.7531392563304993  4.188180891407814 2.014385291188322 1.085720962555146  4.184952370527328 1.989495563592784 1.032372570798143  4.18170423350564 1.964608741176338 0.9790364919870546  4.178445376738425 1.939730825804205 0.9257257894549836  4.175183227995509 1.914851264505092 0.8724505589401018  4.171926502057516 1.889950586115682 0.8192138501450428  4.168686688428177 1.865004070754936 0.766008072549753  5.171125022811538 1.429888521515019 1.370256988936925  5.216201173603949 1.5509160562385 1.294404773418304  5.306936773862561 1.478147184569765 1.342841744257135  5.217446650841084 1.51917185163024 1.241755065549029  5.173300166466981 1.391455323499158 1.320688782849318  5.309762481715098 1.441763228210676 1.29259593157693  5.312569692568461 1.405413320850734 1.242307684035264  5.218638448080887 1.48746308857271 1.189064176453246  5.175443536236454 1.353044802683935 1.271099564220215  5.315368495685066 1.369070552676681 1.191996008419319  5.219816381788388 1.455768944026552 1.136351827105771  5.177578704429863 1.314647000104831 1.221504597734663  5.318166072780261 1.332717195934646 1.141676642876013  5.220999216128579 1.424068378702237 1.083631784018967  5.179717507624792 1.276245643303266 1.171912062337273  5.320963960355313 1.296340362589517 1.091359420388516  5.222202940734553 1.392341441413047 1.030908418385676  5.181867454075801 1.237829008976737 1.122327494442936  5.323765913469516 1.259934416402939 1.041043517707271  5.223450971797213 1.360572783673362 0.9781872400583276  5.184029451526749 1.199391600209823 1.072741894483392  4.521699093011561 1.336384517175364 1.426312969540766  4.548296575851487 1.477802084241364 1.332780473565915  4.630663416280589 1.39442559020313 1.386090687854869  4.630926218280991 1.359584570058795 1.336691303031176  4.548058071927147 1.446474811350566 1.282222868570016  4.522799053001047 1.300698242651329 1.37729649728751  4.631154797712894 1.324761375524808 1.28729075373025  4.547819399319086 1.415181185140818 1.231656075651154  4.523892782487411 1.265011480807512 1.328277247651675  4.631383970107303 1.289948006144904 1.237893082119096  4.547584012396515 1.383899656570211 1.1810974388836  4.52499134739938 1.229323155845947 1.279266972524062  4.63163353781747 1.255136644861361 1.188505976107678  4.547367224871515 1.35261977043969 1.130552802256114  4.526110645258393 1.193633445632494 1.230269191029828  4.631920802885868 1.220325459835987 1.139135331425684  4.547179725783539 1.321335118643629 1.080026024357529  4.527256836186196 1.157943682643273 1.181279207644883  4.632269781583143 1.185513672245597 1.089786131280614  4.547017457747481 1.29003667535477 1.029529714056477  4.528407702040468 1.122256678228796 1.132292572569268  5.009799864646597 1.415318532507922 1.37583852135269  5.105886206246026 1.331693092184997 1.462177062742162  4.962784031710258 1.293045238675167 1.490551399308133  5.011602369599272 1.376513607457877 1.326889699122215  5.117296298941304 1.152148254223819 1.28392678357191  5.016931712761727 1.260212055685672 1.180005639015293  4.978125719527868 1.114872207586361 1.313979038325401  5.015146345669648 1.29897360089677 1.2289617193855  5.12016219722773 1.107254660765508 1.239358268704936  5.018753666588062 1.221448833730375 1.131059777440227  4.982005100079654 1.07031981843913 1.269840337600471  5.123085246542178 1.062354715158384 1.194787122735284  5.020642304415982 1.182662913791315 1.082126049888209  4.985919124786845 1.025764160161407 1.225700351416196  4.994682146661455 1.608773831930223 1.25494056808543  5.125963614838201 1.601552009375078 1.260165691401647  5.079556689344224 1.512608521176585 1.315821283190998  5.080425381338706 1.479637282609964 1.263452943904535  5.127213104590571 1.572422389465077 1.206245383658494  4.995236629998022 1.580507654599268 1.201028920388782  5.081251956540077 1.446702959515214 1.211059640316857  5.128456056544519 1.543359834236026 1.152300105449381  4.995775934998617 1.55231041991497 1.147092960495697  5.082067681300258 1.413783324367116 1.158652894268778  5.129695964787461 1.514325075206384 1.098349865892506  4.996318817910198 1.524141955228046 1.093157202914804  5.082894502381807 1.380860889573988 1.106243414721702  5.130944355008102 1.485287721135955 1.044405473995668  4.99687660732896 1.495973849987946 1.039232504097806  5.083752187938078 1.347922418351805 1.053836925773896  5.132208407587263 1.456224694760727 0.9904761679290908  4.997462467328836 1.46778139868198 0.985325692981353  5.084669873555743 1.314957650995975 1.001438680155546  5.133472027497367 1.427114347039399 0.9365654515037044  4.998103530442053 1.439533506324245 0.9314395324270529  5.133341453516713 2.418936475347998 0.9534801298832076  5.075301733863841 2.524182671726107 0.9185292413105022  5.218897387525037 2.552904144775617 0.916385428331101  5.221427900211205 2.535264716656441 0.8546034036229342  5.079183363385154 2.505051382985989 0.8572939742547334  5.135365851474166 2.399907777529987 0.89409507716287  5.223946174028836 2.517688894905021 0.792940573942134  5.083071017849179 2.485988739381323 0.7961795588318862  5.137366806131279 2.380948962740324 0.8347824891087007  5.226422389574909 2.500198097244074 0.7314163057654434  5.086931188919936 2.46701820709528 0.7351955142509844  5.139336979560076 2.362085822595911 0.7755689272462839  5.228879561170442 2.482759105224657 0.6700190252711388  5.09077899534944 2.448109598612141 0.674327710521464  5.141310210821548 2.343284639459207 0.7164511817050974  5.231326911744344 2.465314597100261 0.608764853789818  5.094596890540566 2.429198571541168 0.6135984009664667  
[...]
<PointData  Vectors="f_16"> 
<DataArray  type="Float64"  Name="f_16"  NumberOfComponents="3" format="ascii">7.0616784767683904e-02 -1.9833979642964565e-02 -6.5700139064297641e-03  6.9227134698653991e-02 -2.0661322867496897e-02 -8.0034854258592379e-03  6.9421773793915939e-02 -2.0312708441170807e-02 -6.3651836879630008e-03  6.9064377621625150e-02 -2.0996405019330745e-02 -6.3808757903898146e-03  6.8877062618879770e-02 -2.1332481658430057e-02 -8.0823190506341090e-03  7.0180761607993025e-02 -2.0479017498479451e-02 -6.5859629384649836e-03  6.9788679531863837e-02 -2.1066194002044920e-02 -6.5767300037453411e-03  6.8554708621841987e-02 -2.1936012238466262e-02 -8.1110070271940907e-03  6.8740470047253241e-02 -2.1622753440062037e-02 -6.3663381715796706e-03  6.9418269147663886e-02 -2.1617729158832533e-02 -6.5385501862744956e-03  6.8244135562284175e-02 -2.2495844153764374e-02 -8.0917561674855795e-03  6.8430501786323608e-02 -2.2211966942233274e-02 -6.3198159125176772e-03  6.9050367981984759e-02 -2.2149195098474565e-02 -6.4633593159469519e-03  6.7935511751866504e-02 -2.3027492377133186e-02 -8.0196191397486141e-03  6.8121697285394064e-02 -2.2781457932572718e-02 -6.2339324703003865e-03  6.7802593689579541e-02 -2.3348966892505728e-02 -6.0980104453537470e-03  6.7618863555140199e-02 -2.3545934365940102e-02 -7.8856378684431742e-03  6.8667485477658163e-02 -2.2676461337757647e-02 -6.3412605349398498e-03  6.7445195212550282e-02 -2.3917070299006093e-02 -5.9043026999995810e-03  6.7253520262696154e-02 -2.4035542800973305e-02 -7.6835275978249734e-03  6.8240488684790115e-02 -2.3208310911795267e-02 -6.1597832556792159e-03  6.4432346707345489e-02 -2.2281990815217596e-02 -7.7050683885342818e-03  6.3044176137980037e-02 -2.2747261840171312e-02 -8.3925914759194250e-03  6.3276818749663913e-02 -2.2538337281191461e-02 -6.8204389806581682e-03  6.3331658694294357e-02 -2.3226134975840352e-02 -6.8846418540986602e-03  6.3142930638047851e-02 -2.3363444311487611e-02 -8.5243422832752252e-03  6.4439793780713739e-02 -2.2959861511311203e-02 -7.7972061144683047e-03  6.3226288835521019e-02 -2.3949383016907778e-02 -8.6109234036402058e-03  6.4428907036264790e-02 -2.3597896033321856e-02 -7.8465644261290404e-03  6.3377919066491969e-02 -2.3878724863676187e-02 -6.9093875146867588e-03  6.4408025938874097e-02 -2.4205107944770401e-02 -7.8500683044305745e-03  6.3299882509897834e-02 -2.4510990254437655e-02 -8.6507919242515968e-03  6.3417114200073357e-02 -2.4505094018696293e-02 -6.8920711502477843e-03  6.4381861985816066e-02 -2.4791296753504180e-02 -7.8036935522608026e-03  6.3368027379455016e-02 -2.5053095053369067e-02 -8.6407084983615313e-03  6.3451585532053406e-02 -2.5115238266014011e-02 -6.8293321696085577e-03  6.4356046584668883e-02 -2.5365266395205872e-02 -7.7031495260318225e-03  6.3434882168300358e-02 -2.5580785848048935e-02 -8.5763878623502880e-03  6.3483411645707727e-02 -2.5718692383409826e-02 -6.7166711784559536e-03  6.4321333202145198e-02 -2.5934237909571854e-02 -7.5464689145769625e-03  6.3499029010006106e-02 -2.6098252168649659e-02 -8.4554440333559633e-03  6.3507957988759897e-02 -2.6323854582023999e-02 -6.5509038749398934e-03  6.4553761458073830e-02 -2.1198801113854242e-02 -1.6310349834929151e-03  6.4201109287381486e-02 -2.1770838777863566e-02 -3.6348262035147991e-03  6.3374076442997140e-02 -2.1669422853324866e-02 -2.3815706052747929e-03  6.3380886239282841e-02 -2.2410468292063734e-02 -2.1823800972335630e-03  6.4166541044280628e-02 -2.2525788252970743e-02 -3.5123534368631864e-03  6.4499874243097874e-02 -2.1918920626154473e-02 -1.4040632299098044e-03  6.4133175974565734e-02 -2.3234506763631837e-02 -3.3771610757261433e-03  6.4446856493293903e-02 -2.2600998472148671e-02 -1.1847819918281400e-03  6.3386267828368120e-02 -2.3112060570274200e-02 -1.9878790433379098e-03  6.4098529326604370e-02 -2.3917302283675498e-02 -3.2212757574182843e-03  6.4394289853785383e-02 -2.3264742234224273e-02 -9.6089385612596763e-04  6.3391413245270187e-02 -2.3789818349673947e-02 -1.7816988182740206e-03  6.4060117944806677e-02 -2.4590537828593988e-02 -3.0379025984596940e-03  6.4338630287014031e-02 -2.3925118950504289e-02 -7.2380765513682319e-04  6.3393392681034916e-02 -2.4459060663509176e-02 -1.5540028478219288e-03  6.4015620894238220e-02 -2.5268980923823566e-02 -2.8203235166997754e-03  6.4276059475388420e-02 -2.4594216165064995e-02 -4.6548065224086580e-04  6.3389509131316357e-02 -2.5132600064938115e-02 -1.2983055956338806e-03  6.3962508478156585e-02 -2.5965674557292037e-02 -2.5628581484583319e-03  6.4201706652758206e-02 -2.5281046975788802e-02 -1.7541479818546050e-04  6.3379345657302966e-02 -2.5823576026087085e-02 -1.0144090450956828e-03  6.4342228116694905e-02 -2.2473195416558744e-02 -9.1930538176633672e-03  6.3262846883096871e-02 -2.2780390409647824e-02 -9.6618992334238443e-03  6.3384722797334633e-02 -2.3332892753258078e-02 -9.8354376775237808e-03  6.4388255827100740e-02 -2.3086007471640094e-02 -9.3408588322757922e-03  6.3482656387128064e-02 -2.3860742275387002e-02 -9.9637957700109726e-03  6.4408944821507233e-02 -2.3662409157933814e-02 -9.4379023119787256e-03  6.4414249786113403e-02 -2.4207309446780016e-02 -9.4835805862154687e-03  6.3565652869897626e-02 -2.4361731266789314e-02 -1.0042060492813625e-02  6.3642620484761103e-02 -2.4838449833460074e-02 -1.0066323210834451e-02  6.4413782002449516e-02 -2.4726911335156733e-02 -9.4734810203115725e-03  6.3722119809443617e-02 -2.5295217484003634e-02 -1.0032898646518120e-02  6.4415963938460677e-02 -2.5227853076900442e-02 -9.4041029344625379e-03  6.3797243402916384e-02 -2.5723331902538657e-02 -9.9419360995026684e-03  6.4409424846585864e-02 -2.5698351479681910e-02 -9.2746929727663633e-03  7.0596710459157982e-02 -2.0110037673705616e-02 -8.0655097336298238e-03  7.0139291638586065e-02 -2.0734898015408471e-02 -8.1369195554265427e-03  6.9725823486032387e-02 -2.1296434669799792e-02 -8.1648400881903227e-03  6.9335037384768497e-02 -2.1815592966723737e-02 -8.1487481599275841e-03  6.8948422188312375e-02 -2.2306614988884824e-02 -8.0833473888382787e-03  6.8547898569670709e-02 -2.2781383218509775e-02 -7.9570360841508744e-03  6.8093408877417216e-02 -2.3232133230843402e-02 -7.7634021268633054e-03  6.1323628448499007e-02 -2.1793794130727486e-02 -1.0083310245015491e-03  6.0898204355774171e-02 -2.2283563468715087e-02 -2.6331586264099873e-03  6.0138275846553166e-02 -2.2051049437334075e-02 -1.3514019213994512e-03  6.1034780300852826e-02 -2.3022196372753930e-02 -2.4947364811563262e-03  6.1428094303353192e-02 -2.2499975285831572e-02 -7.4555665469436001e-04  6.0321692985781113e-02 -2.2757883996491743e-02 -1.1400257935473908e-03  6.0507226064497911e-02 -2.3423033657271157e-02 -9.2014129145129688e-04  6.1184424533200180e-02 -2.3714477396369574e-02 -2.3409728187030127e-03  6.1542115904388003e-02 -2.3166493456771371e-02 -4.8604300780171031e-04  6.0694394956423342e-02 -2.4063260472617917e-02 -6.8212100302770227e-04  6.1337438174248186e-02 -2.4379964317160264e-02 -2.1643248071387218e-03  6.1658720019516965e-02 -2.3812386473936596e-02 -2.1803894790670613e-04  6.0880360540400288e-02 -2.4692344639682250e-02 -4.1935283156119003e-04  6.1488414449153532e-02 -2.5033833443400544e-02 -1.9575111100829162e-03  6.1773063537710386e-02 -2.4451382064587992e-02 6.8718411032542626e-05  6.1061692423796173e-02 -2.5320313745096797e-02 -1.2590984202702696e-04  6.1633182339221028e-02 -2.5688247851542473e-02 -1.7144317536137285e-03  6.1881582244937623e-02 -2.5094280653387181e-02 3.8294072543443980e-04  6.1236916987647362e-02 -2.5958247167344961e-02 2.0449683148944094e-04  6.1768618743233770e-02 -2.6356127950722903e-02 -1.4321913822316207e-03  6.1984146626207562e-02 -2.5748928442383721e-02 7.3300735384053536e-04  6.6722626556304829e-02 -2.0060516457867408e-02 -2.7247548597293161e-06  6.6668054299626772e-02 -2.0602909945982930e-02 -2.1474769755614395e-03  6.5884767638109673e-02 -2.0580415233357536e-02 -9.6689880634890204e-04  6.5762122622542649e-02 -2.1270323998332851e-02 -7.2625264868192137e-04  6.6504343513251019e-02 -2.1316648063426553e-02 -1.9697151293973946e-03  6.6583426145138735e-02 -2.0719269595292997e-02 2.3538537087693771e-04  6.5653316268352663e-02 -2.1929749385661595e-02 -5.0409269574830753e-04  6.6347085643605322e-02 -2.1993376853716485e-02 -1.7971863427695218e-03  6.6446074720708487e-02 -2.1350366573790448e-02 4.4957017773588677e-04  6.5547983161505716e-02 -2.2572271255992777e-02 -2.8492627425206796e-04  6.6194262488529498e-02 -2.2648626313315233e-02 -1.6184721895001757e-03  6.6310683996308656e-02 -2.1971543143007401e-02 6.5497535311014065e-04  6.5441130145851248e-02 -2.3212680089044504e-02 -5.7766524502284679e-05  6.6041523377542710e-02 -2.3297321788356615e-02 -1.4251880722821069e-03  6.6174670055986359e-02 -2.2595148288144740e-02 8.6315030957106087e-04  6.5328172296714865e-02 -2.3864370821042407e-02 1.8432934429557464e-04  6.5885099456127832e-02 -2.3953548184136215e-02 -1.2115280705067451e-03  6.6036777349478673e-02 -2.3230735350999069e-02 1.0827591732362753e-03  6.5202042970262608e-02 -2.4541056185674252e-02 4.4321222853537732e-04  6.5720680591956043e-02 -2.4632554538226891e-02 -9.7566196935157726e-04  6.5901522657575776e-02 -2.3888835767739820e-02 1.3148836330235238e-03  6.2683820110406227e-02 -2.1541560494089958e-02 -1.0867070965824555e-03  6.1845165356169449e-02 -2.1067060094688186e-02 4.4827934162571372e-04  6.2986242897637240e-02 -2.0684361236965109e-02 8.4782609498824306e-04  6.2710741326316183e-02 -2.2242317865649494e-02 -8.0286946351093406e-04  6.2135829851113412e-02 -2.3484751799991491e-02 1.8486378635843331e-03  6.2829183809450254e-02 -2.4205676577728638e-02 4.3435799357762796e-05  6.3056165134319428e-02 -2.3054804982856357e-02 2.2111475293056467e-03  6.2791588539422794e-02 -2.3560431658587296e-02 -2.5001397957471371e-04  6.2205528186762768e-02 -2.4082524598431545e-02 2.2092090522582591e-03  6.2857755508992016e-02 -2.4857055110151276e-02 3.5959993121757088e-04  6.3067339278342432e-02 -2.3651155591109651e-02 2.5523927236454102e-03  6.2257949027552655e-02 -2.4694689368564622e-02 2.5958240245863664e-03  6.2869486940713704e-02 -2.5523085539709368e-02 7.0331602123090045e-04  6.3069588760121947e-02 -2.4269254020503849e-02 2.9107656741973777e-03  6.2757770039241226e-02 -2.2245772325766414e-02 -3.9368732427298350e-03  6.1632467274672871e-02 -2.2420448225783585e-02 -3.5676214505364350e-03  6.2080215408162769e-02 -2.1994865451237456e-02 -2.4075592392945305e-03  6.2149760919658945e-02 -2.2741430920153207e-02 -2.2300345283322110e-03  6.1742251130472305e-02 -2.3163918446088644e-02 -3.4747490079559979e-03  6.2807141478661691e-02 -2.2994046827112379e-02 -3.8498783923645117e-03  6.2229999914324576e-02 -2.3443775249960701e-02 -2.0467299794698925e-03  6.1851354488297657e-02 -2.3863675031830272e-02 -3.3581679844291975e-03  6.2856311555930133e-02 -2.3700484129327491e-02 -3.7409553669500730e-03  6.2312472934622019e-02 -2.4121356896333310e-02 -1.8477252439715564e-03  6.1961280676927473e-02 -2.4539046207036144e-02 -3.2149588495047456e-03  6.2904461038921611e-02 -2.4382100241409896e-02 -3.6055077467086099e-03  6.2391882140003144e-02 -2.4789585118695653e-02 -1.6241885636233255e-03  6.2069494113144691e-02 -2.5203288542970170e-02 -3.0388226312665274e-03  6.2949371640866739e-02 -2.5052729591530220e-02 -3.4374987805012767e-03  6.2463674320148571e-02 -2.5460718690364384e-02 -1.3689992008928925e-03  6.2174508802127534e-02 -2.5868099947895663e-02 -2.8241111601288288e-03  6.2989073209797727e-02 -2.5724968980985433e-02 -3.2312542891283608e-03  6.2521159253396436e-02 -2.6143521647978778e-02 -1.0749188039500073e-03  6.2280633838827877e-02 -2.6543300483009024e-02 -2.5657920370420403e-03  6.3018802141854166e-02 -2.6413216013477320e-02 -2.9821943253710835e-03  6.0930870101537138e-02 -2.3190888587421278e-02 -1.0766062105718397e-02  6.1411160236443649e-02 -2.3076115747654405e-02 -1.1468159777230752e-02  6.0171739615567675e-02 -2.3160979914461904e-02 -1.0824928649055042e-02  6.0523675569841152e-02 -2.3425959626224450e-02 -1.1133241321970383e-02  6.1729442666112681e-02 -2.3373092050564082e-02 -1.1762605687644064e-02  6.1224839237005946e-02 -2.3536385722970989e-02 -1.1031313152362211e-02  6.0850431022563364e-02 -2.3676011677626400e-02 -1.1399729469362197e-02  6.2014290462086279e-02 -2.3651292246779618e-02 -1.2012704160687299e-02  6.1497728283164743e-02 -2.3869086547681256e-02 -1.1254601194435374e-02  6.1162267067798905e-02 -2.3913544787427111e-02 -1.1622271024232760e-02  6.2278125881016264e-02 -2.3910320597480501e-02 -1.2214698943047615e-02  6.1756620448051767e-02 -2.4186334137990470e-02 -1.1433251653191314e-02  6.1469504961500318e-02 -2.4139047047122379e-02 -1.1801000818345697e-02  6.2534406002783205e-02 -2.4150170024340400e-02 -1.2366198450226504e-02  6.2010122812357779e-02 -2.4486270968639562e-02 -1.1565929184322175e-02  6.1783900661123034e-02 -2.4353018135853940e-02 -1.1938502638094662e-02  6.2798500774998545e-02 -2.4371660366263603e-02 -1.2467934589006129e-02  6.2268756635116718e-02 -2.4768049634649934e-02 -1.1653136956400283e-02  6.2120154515323309e-02 -2.4555469981383457e-02 -1.2039909329867027e-02  6.3088454810856801e-02 -2.4577423980569741e-02 -1.2523854606067975e-02  6.2544554100571401e-02 -2.5032520352776044e-02 -1.1697640834515497e-02  6.1198238100066152e-02 -2.3156387214903040e-02 -8.5222704553677454e-03  6.0174700286274425e-02 -2.3300732144205593e-02 -8.8520264820285757e-03  6.0001084089758391e-02 -2.3255000059458037e-02 -7.6305876729413679e-03  6.0230959878585240e-02 -2.3792013793352610e-02 -7.8001121545788468e-03  6.0421679851591130e-02 -2.3762208610386776e-02 -9.0592007958561309e-03  6.1391502464961556e-02 -2.3691274266567326e-02 -8.6916111322189009e-03  6.0461170451859780e-02 -2.4316263491745153e-02 -7.9226414941396470e-03  6.0662858171290052e-02 -2.4216138448422873e-02 -9.2221279073253799e-03  6.1575681232858580e-02 -2.4210896466290613e-02 -8.8163570177743813e-03  6.0689289870225899e-02 -2.4826971318363873e-02 -7.9994839879534343e-03  6.0899200394106512e-02 -2.4658773422738763e-02 -9.3405461851912390e-03  6.1753607587160621e-02 -2.4714663584338211e-02 -8.8951422358224397e-03  6.0914763401885758e-02 -2.5324598870877159e-02 -8.0308466199248939e-03  6.1132559247512444e-02 -2.5087901710163795e-02 -9.4143039059818457e-03  6.1928479848849645e-02 -2.5203134446775417e-02 -8.9265513196803495e-03  6.1138171061543303e-02 -2.5810254259687537e-02 -8.0160762034985778e-03  6.1365524731563294e-02 -2.5501942588402545e-02 -9.4437272619638853e-03  6.2104340666689489e-02 -2.5677325923986978e-02 -8.9090330034724326e-03  6.1359106823776821e-02 -2.6284400729357442e-02 -7.9539257054413899e-03  6.1601482119282035e-02 -2.5898684673272894e-02 -9.4294082196024163e-03  6.2286492126752947e-02 -2.6142270657604841e-02 -8.8413086624615899e-03  6.2827432341717671e-02 -2.2957685803819971e-02 -1.2870486339308708e-02  6.1843312527783093e-02 -2.2969922618051565e-02 -1.2393884359041343e-02  6.1476439564880921e-02 -2.3225392791585510e-02 -1.2008859052649305e-02  6.1810503021400912e-02 -2.3406420757967419e-02 -1.2307033968095018e-02  6.2199366067053251e-02 -2.3037820470524554e-02 -1.2737065176667142e-02  6.3129777263951178e-02 -2.3087816363620520e-02 -1.3193888718764165e-02  6.2121457138863752e-02 -2.3569844702743994e-02 -1.2553185886160383e-02  6.9375438522017455e-02 -1.9570649134381418e-02 -1.8552213644462345e-03  6.8443599671689531e-02 -1.9969368398605136e-02 -2.1454207302134850e-03  6.8712050108249406e-02 -1.9615214605118506e-02 -7.3163485791336957e-04  6.8462870525029029e-02 -2.0259849786537311e-02 -5.6016717959449464e-04  6.8188936396251176e-02 -2.0664183385769107e-02 -2.0148446970831993e-03  6.9079526882159653e-02 -2.0230901204376966e-02 -1.7280515888700261e-03  6.8243502416535262e-02 -2.0872987139367662e-02 -4.0445727071529506e-04  6.7951956224169510e-02 -2.1318863096081858e-02 -1.8884747625952253e-03  6.8816992143069938e-02 -2.0852187513482594e-02 -1.6123897949761670e-03  6.8036591944786964e-02 -2.1474713708974330e-02 -2.5794308162877471e-04  6.7724830918483678e-02 -2.1953106249405694e-02 -1.7596327081419400e-03  6.8569614988121419e-02 -2.1457595461887583e-02 -1.5010123663142143e-03  6.7828124014156457e-02 -2.2079604438168723e-02 -1.1169209543285750e-04  6.7498066146291974e-02 -2.2583671109040169e-02 -1.6200251975431166e-03  6.8320841969864821e-02 -2.2062982674693029e-02 -1.3852949589014129e-03  6.7606038514688327e-02 -2.2697607619870674e-02 4.4599705828354305e-05  6.7263726137878940e-02 -2.3224572125172951e-02 -1.4611063923986153e-03  6.8056159386433002e-02 -2.2681309212774375e-02 -1.2548259013270757e-03  6.7359155554172115e-02 -2.3334422359612108e-02 2.2249627233472742e-04  6.7018604103086854e-02 -2.3887986419700236e-02 -1.2757380216612344e-03  6.7764423721378031e-02 -2.3322202790916520e-02 -1.0970388939976032e-03  6.4339193389008037e-02 -2.2565814196998490e-02 -1.0410807808693459e-02  6.4423784599277417e-02 -2.3117190797472088e-02 -1.0600889762860909e-02  6.4471141742576038e-02 -2.3632780831744103e-02 -1.0735255314064083e-02  6.4497640860274943e-02 -2.4115089396377774e-02 -1.0813695498993839e-02  6.4516959839537605e-02 -2.4566616923325724e-02 -1.0833199709670100e-02  6.4542331002197417e-02 -2.4989423153852903e-02 -1.0788990549127124e-02  6.4565088132260348e-02 -2.5361669379981043e-02 -1.0681909720983747e-02  6.5422847111401727e-02 -2.1200917491274555e-02 -2.8578799557483852e-03  6.5317170695941951e-02 -2.1942808038092142e-02 -2.7013346682060947e-03  6.5222804793335601e-02 -2.2639409062158763e-02 -2.5421621747959877e-03  6.5129879994416176e-02 -2.3311025064195197e-02 -2.3704137384594074e-03  6.5034138554106807e-02 -2.3974887578393094e-02 -2.1781108681728618e-03  6.4930979619426621e-02 -2.4646409687364441e-02 -1.9583329886035034e-03  6.4812866881354847e-02 -2.5340564460947984e-02 -1.7043217775618671e-03  7.0725495130910393e-02 -1.8983980066066324e-02 -1.7015294078440288e-03  6.9952058716821933e-02 -1.9085211703127696e-02 -4.6872759955977233e-04  6.9662346495369315e-02 -1.9671498792582457e-02 -2.9568688474353828e-04  7.0386906024861973e-02 -1.9579902629758537e-02 -1.5703710375713552e-03  6.9422755264902075e-02 -2.0233700575483082e-02 -1.5392991911778904e-04  7.0096374880689538e-02 -2.0147374877479127e-02 -1.4645434664718095e-03  6.9205108005921750e-02 -2.0789638683340515e-02 -3.2481952670296338e-05  6.9827645355392001e-02 -2.0703987713808669e-02 -1.3735401282231928e-03  6.8985321915098305e-02 -2.1352788213949106e-02 7.8771984199032123e-05  6.9558161035067248e-02 -2.1263820743700187e-02 -1.2879664214352335e-03  6.8741063275910633e-02 -2.1933911592742047e-02 1.8934640072000466e-04  6.9265979897726773e-02 -2.1840321293478876e-02 -1.1987877542492607e-03  6.8446429040994169e-02 -2.2542136371720138e-02 3.1076887396830691e-04  6.8925030207504456e-02 -2.2448215821799553e-02 -1.0950025172496341e-03  7.3209140346692500e-02 -1.7737670175256428e-02 7.1557806781136790e-05  7.3738069939006431e-02 -1.7657820184135479e-02 -1.2957224274326622e-03  7.2816305129765377e-02 -1.7998305254433782e-02 -1.0529063712353443e-03  7.2521182619425209e-02 -1.8473123682022006e-02 -9.4065502894574954e-04  7.3451914650301389e-02 -1.8092268521963006e-02 -1.2195204494089903e-03  7.3028587769224385e-02 -1.8146353104255566e-02 1.6877060966766170e-04  7.2260485640380276e-02 -1.8937231087091420e-02 -8.7150984056990678e-04  7.3188035609903015e-02 -1.8521837188052698e-02 -1.1839326886927881e-03  7.2851644218388981e-02 -1.8561029452649102e-02 2.1821337828444577e-04  7.2018268734697549e-02 -1.9400566062298088e-02 -8.3418896185901358e-04  7.2935597263787205e-02 -1.8952705579952434e-02 -1.1795711503524444e-03  7.2683008980663807e-02 -1.8983924519725283e-02 2.2820321319454626e-04  7.1778352203125090e-02 -1.9874686135001950e-02 -8.2163894882103462e-04  7.2686853318083458e-02 -1.9393960786127228e-02 -1.1997308521479698e-03  7.2517723202842777e-02 -1.9423151320694790e-02 2.0539934638717710e-04  7.1523263136693951e-02 -2.0372878947479224e-02 -8.3184521249140945e-04  7.2432985787142079e-02 -1.9856869369922363e-02 -1.2437008467848149e-03  7.2350019829113765e-02 -1.9889611496616298e-02 1.4903