<?xml version="1.0"?>
<VTKFile type="UnstructuredGrid"  version="0.1"  >
<UnstructuredGrid>
<Piece  NumberOfPoints="966" NumberOfCells="4169">
<Points>
<DataArray  type="Float64"  NumberOfComponents="3"  format="ascii">1.584888979483782 3.971873803048069 2.81805364813742  1.704589237651633 3.954768489740561 2.893389942584836  1.715408841158685 3.988306171441774 2.769973055781669  1.714167204545384 4.051216040728891 2.786196891033152  1.703640590982044 4.017080313249979 2.912142386588269  1.583429463856866 4.034245349245229 2.834717634993238  1.713051795102597 4.114075718146214 2.802339031270728  1.702829985391363 4.079360550549228 2.930812926266258  1.582094707263336 4.096603241440952 2.851291969631515  1.712008630220043 4.176857338584278 2.818418340494244  1.702094495581182 4.141591416487471 2.949424525139237  1.580832205226649 4.158928619491455 2.867804714065569  1.710979495598554 4.239567081180092 2.834465843035621  1.701371301387602 4.203770883452809 2.968008199909121  1.579587865525417 4.22121513459572 2.884296872488574  1.709910108931396 4.302204138890175 2.850509711557904  1.700597866968399 4.265891147974536 2.986594679845594  1.578305037920851 4.28345425226337 2.900807280331195  1.708714785254853 4.364760046885119 2.866601862397621  1.699685988150501 4.327938806256348 3.005236971467744  1.576903205957737 4.345636209256211 2.917386135441189  1.610051260649452 3.993723909842683 2.736480296799805  1.608507442698195 4.056529562666935 2.751644469554441  1.607083498132808 4.119286433882954 2.766714201987571  1.605722169216507 4.181992657076385 2.781726702148423  1.604379323569362 4.244641272009106 2.796713986484989  1.603006792448967 4.30722601386621 2.811707081494227  1.60151946712847 4.369731964529948 2.826757786004123  1.487883823741617 3.991438362627462 2.735137011493554  1.59896801152505 4.014500103405909 2.643630061910434  1.597328493620479 4.077837889312884 2.656963879786598  1.486778025031248 4.054275851949986 2.750269626210231  1.59579199570176 4.141124238016673 2.6702103877712  1.485765080631687 4.11710031452157 2.765294326631595  1.594314754638994 4.204344991982198 2.683399573411837  1.484806472907306 4.179898676817153 2.780256970691806  1.592856988828903 4.267495542969611 2.696561292263094  1.483867329472248 4.2426568060571 2.795206015175102  1.591378148584018 4.330574992751136 2.709725949349186  1.482911634197956 4.305367086603388 2.810191508453549  1.589802681118187 4.393583442990373 2.722950444496391  1.481889261958609 4.368030416768423 2.825272262561016  1.815652529613887 4.040123485273897 2.549833952118177  1.830219118856849 4.014756033932712 2.673228403006872  1.933878422109528 4.041395451381709 2.559202751773089  1.813840688858683 4.105098833455 2.562214363582861  1.829225117922233 4.078800159547035 2.688145254926487  1.935350930083875 4.106920337720289 2.57205841908016  1.828357157262635 4.142721917964458 2.702973012556971  1.812164685230456 4.169906737019103 2.574520341924132  1.936873975027073 4.172290875786557 2.584854765872153  1.827538381941847 4.206525039246869 2.71774137169168  1.810533417271928 4.234587529670053 2.586776158739096  1.938410014607018 4.237516971035232 2.597614053839131  1.826720371305151 4.270221920714594 2.73248058386132  1.808899577224037 4.299152249565325 2.599005179287428  1.93993428010679 4.302615246253986 2.610352144850293  1.825858618646273 4.333816983332292 2.747209606469115  1.807215070065758 4.363599142872465 2.611227011494644  1.941418638360313 4.367584120516048 2.623084238562385  1.824899753274564 4.397297099380144 2.761945859990996  1.805436384761011 4.427897005240951 2.623430340797329  1.942879895017105 4.432407878084915 2.635783758515561  1.699264733459368 4.036579097727432 2.548972356610576  1.776611466699632 4.060401727705872 2.424955124995062  1.774099084210437 4.126197722060902 2.435024160803549  1.697153700152976 4.100879947291604 2.560777285113002  1.771728172480778 4.191845163537267 2.445030881652202  1.695163576522087 4.165087658683881 2.572509070868648  1.769407799673954 4.257353965158649 2.454997943900445  1.693234186914792 4.229194471343273 2.584187655913971  1.767084988503971 4.322739539940159 2.464941848039612  1.691316575207125 4.293202459027811 2.595836183567308  1.764712432598664 4.388009451889936 2.474878299032413  1.689361242781477 4.357116996633323 2.607479089052191  1.76224918081621 4.453160869829701 2.484784508603936  1.68730418332641 4.420937779211975 2.619140340695258  1.904166624299965 4.064595568082007 2.425043570583483  1.905510461970631 4.131449786631325 2.434342968928914  1.906903013785497 4.198102497182004 2.443590172905312  1.908300534638569 4.264603280115675 2.452809933492286  1.909683872469098 4.330973281238476 2.46201045838266  1.91102547258364 4.397211442528839 2.471206641645906  1.912357977706011 4.463310550179576 2.480361193321706  1.248277113236035 3.86178951459642 3.119985445114589  1.35859591835641 3.810241297726341 3.227504378803362  1.368469242644364 3.873252608184924 3.103394201802525  1.366963076099991 3.933807294481928 3.129637269893069  1.35718533955191 3.867902468861187 3.260688532355684  1.247151253749164 3.922576460521371 3.148036806475126  1.356060085178281 3.925793516854323 3.293704609235938  1.246266399418996 3.983567228525668 3.175845004385399  1.365696319096853 3.994538315655345 3.15569731879864  1.355015683693276 3.983820861037792 3.326736500596369  1.24545563131641 4.044680275340624 3.203610184926541  1.364491830306842 4.055360483330857 3.181749242698185  1.353940648027667 4.04191964166705 3.359875648759298  1.244618224968093 4.105845365576585 3.231470682367763  1.363272920142736 4.11623194914598 3.207868609859281  1.352785900815581 4.100070776756887 3.393158914807764  1.24374222925132 4.167043459532734 3.259479970323971  1.361996432109255 4.177138585144013 3.234101380142903  1.351496247508665 4.158271037125498 3.426630612947131  1.24281650786888 4.228281508855781 3.287708938030203  1.360606655112033 4.238090934831253 3.260507574968944  1.337143762783316 4.053394651532681 2.402841634784249  1.435447467771159 4.04924133404646 2.433881225912299  1.446877178344084 4.059712242338498 2.343634177851262  1.44606867717453 4.125753648894785 2.351106226632063  1.434852632877606 4.114436342490313 2.443552155072265  1.337086049513616 4.119520069417485 2.411762861618568  1.445276580760816 4.191683230326772 2.358486121706064  1.434269182944316 4.179557943079671 2.453124538957178  1.33702292542285 4.185580736176581 2.420574993895596  1.444511411780807 4.257501471197759 2.365809818758746  1.433713015510472 4.244589711992027 2.462635500274253  1.336966147795883 4.251547559580705 2.429317198004498  1.443777444235969 4.323206760162543 2.3731059279707  1.433187321574049 4.309524565801402 2.472123003978642  1.336938237381 4.317404000643235 2.438034033528982  1.443081315922727 4.388807492084553 2.380408377141849  1.43270258984949 4.374365837042257 2.481619830637456  1.336978979330258 4.383140849894314 2.446766924767648  1.442415402700234 4.454315629558444 2.387776124847628  1.432236688422207 4.439129285813569 2.49120091665852  1.33710394266055 4.448757350757704 2.455602130992762  1.000546770688328 3.84764506477066 3.14137940317772  0.8748852751541625 3.794016520793638 3.238162109761256  0.9940629732317124 3.784717045320605 3.246284225959225  0.9935275290134756 3.845265280214599 3.282176815152891  0.876320200075515 3.856133357914042 3.275945235320532  1.001066053425622 3.909777002114994 3.174173325369001  0.9933031450335076 3.906227303846726 3.317754369807813  0.8779991549732228 3.918664303913189 3.313346128428837  1.001802920371206 3.972207129823464 3.206590561661405  0.9931610811347227 3.967398084976296 3.353286247724051  0.8797210200631433 3.981379120923659 3.350698387099538  1.002605973708553 4.034783170287323 3.238906857135579  0.9929946430506678 4.02863392070136 3.388951083897508  0.8814132398755257 4.044135059773509 3.388197953136205  1.003380920286756 4.097393295571203 3.271328553876294  0.992819492924473 4.08987939320625 3.424837351642176  0.8831310224942347 4.106884004497435 3.42595206905114  1.004161769934489 4.159987145546396 3.303954047132727  0.9926704755257054 4.151140235596413 3.461043857375052  0.8850148915716399 4.169578123363316 3.464083676200163  1.005043606501508 4.222534037094948 3.336914974954651  1.715030855877788 4.013212188950329 2.664659104215805  1.713267961987451 4.076810381232599 2.678634669157975  1.711634791659586 4.140294109202109 2.69252061998014  1.710063444768672 4.203688639787126 2.70634766089651  1.708505435046747 4.266996510648194 2.720143559344406  1.706910920939648 4.330221438328559 2.733932171080835  1.705193494399813 4.393356303132681 2.747756010005289  1.476283496467403 4.014364909347576 2.630442748255573  1.475273958409575 4.077962662101275 2.643066737994939  1.474334394630787 4.14152162480128 2.655584984452518  1.473439603008405 4.205029953932216 2.668038618757161  1.47256788224895 4.268477808989291 2.68047073602521  1.471698456297242 4.331859394587936 2.69292558654084  1.470794685515943 4.395172626545574 2.705467425741196  1.475092025449397 3.82959403105143 3.200234843194414  1.473274030779892 3.887590353883447 3.23170102658978  1.471703835435092 3.945751069154113 3.263042977798975  1.470214206046225 4.004008914339315 3.294401388222474  1.468718071001121 4.062320061479568 3.325817723400216  1.467140069153004 4.12065935177717 3.357328392923029  1.465386949256449 4.179007107202504 3.388971606868064  1.227962521512891 3.810464681238501 3.216811807107887  1.226484053442778 3.869481491090419 3.249420340998768  1.225299833888307 3.928761895276888 3.281803317843865  1.224208332137126 3.988206009618207 3.314175467266831  1.223085339614295 4.047725787311901 3.346670150148238  1.221903608910518 4.107288815953284 3.379332278983246  1.220627147910758 4.166873144417113 3.412200405387279  1.098951760052476 4.055454669045872 2.436105863823386  1.214908297455296 4.042816943603477 2.470645029536512  1.218903096721703 4.057608623663438 2.365601634478666  1.220800447345338 4.12532874880966 2
[...]
<PointData  Vectors="f_16"> 
<DataArray  type="Float64"  Name="f_16"  NumberOfComponents="3" format="ascii">9.4285595760347757e-02 -1.5363968724612885e-03 3.4399252117255086e-03  9.3382147176343230e-02 -1.9844823362147766e-03 3.9189971216279590e-03  9.3377654227539561e-02 -1.9133071597396340e-03 3.5416010296968267e-03  9.3600774196859221e-02 -1.6736052536114752e-03 3.6086492717073764e-03  9.3607926220096171e-02 -1.7492939554554919e-03 3.9929227685148762e-03  9.4431587553490223e-02 -1.3207074641240870e-03 3.4902736950347922e-03  9.3867936546125158e-02 -1.4804636619612493e-03 3.6675236417385601e-03  9.3874789998717692e-02 -1.5589333102843741e-03 4.0567608290176058e-03  9.4620031501882987e-02 -1.1343123948287593e-03 3.5381392607943909e-03  9.4156242232499757e-02 -1.3286694767338976e-03 3.7173667614684952e-03  9.4161439966005039e-02 -1.4111683575708548e-03 4.1102974223100773e-03  9.4829732979034409e-02 -9.7828977521053836e-04 3.5800841050767731e-03  9.4445569691026549e-02 -1.2156625450934100e-03 3.7580931358946594e-03  9.4449691627337878e-02 -1.3024172757852351e-03 4.1532545435527422e-03  9.5043311592649712e-02 -8.5116282437662993e-04 3.6147284363068815e-03  9.4716788236730409e-02 -1.1401290778113721e-03 3.7897911032428412e-03  9.4722320295788184e-02 -1.2306054481623109e-03 4.1860653755692381e-03  9.5243229953593633e-02 -7.5014641512575347e-04 3.6413373700606407e-03  9.4949083241884405e-02 -1.1023477529812820e-03 3.8123520982931191e-03  9.4961719483469043e-02 -1.1950195101895847e-03 4.2101601104642420e-03  9.5410758761493603e-02 -6.7129368220437426e-04 3.6597409436762594e-03  9.4148173881861100e-02 -1.5510126877838518e-03 3.2513846590604078e-03  9.4304498752041485e-02 -1.3342266658419779e-03 3.2986544380811116e-03  9.4503719483283233e-02 -1.1468278595100712e-03 3.3439267638262012e-03  9.4724996539002695e-02 -9.9049955127306685e-04 3.3841391790215124e-03  9.4948948662967242e-02 -8.6416977652901147e-04 3.4175594113929168e-03  9.5156460047751662e-02 -7.6567725698504228e-04 3.4433227043877751e-03  9.5327533424598196e-02 -6.9143074798738865e-04 3.4606253290493721e-03  9.4934802096595217e-02 -1.2619223898650193e-03 2.9986661489877905e-03  9.4251208781872528e-02 -1.4743806286038061e-03 2.9583723767529395e-03  9.4397461932956311e-02 -1.2598442837873183e-03 2.9980408919345778e-03  9.5042290087857417e-02 -1.0652958114891055e-03 3.0319550164222787e-03  9.4587637558456339e-02 -1.0724063988560573e-03 3.0373322123816576e-03  9.5186204194440710e-02 -8.8721058681958569e-04 3.0666986575631308e-03  9.4800369056823985e-02 -9.1364058547564525e-04 3.0727427312233694e-03  9.5350746444582829e-02 -7.3036890740335223e-04 3.0991365966589195e-03  9.5015716661750751e-02 -7.8286871138316227e-04 3.1023108644472070e-03  9.5520417801757657e-02 -5.9413794693145134e-04 3.1263427470807361e-03  9.5213636324278830e-02 -6.7777985286182239e-04 3.1249771958757702e-03  9.5679451606321284e-02 -4.7541583788326193e-04 3.1463616088252071e-03  9.5372531485058212e-02 -5.9445203536764662e-04 3.1405049202575231e-03  9.5810405448558553e-02 -3.6962401633851397e-04 3.1576289503476105e-03  9.2689460667623916e-02 -2.1258907737862916e-03 2.9706355464581722e-03  9.2525554460306719e-02 -2.3058371965460735e-03 3.3906053385091370e-03  9.1668161463289086e-02 -2.7272005981393765e-03 3.0930666375959793e-03  9.2976905029787185e-02 -1.8585998443977280e-03 3.0373558875330456e-03  9.2837487828708598e-02 -2.0418907331350581e-03 3.4664153162786721e-03  9.2096755122558341e-02 -2.4541958453620448e-03 3.1746986974403378e-03  9.3196313126086242e-02 -1.8387895857254974e-03 3.5318254954411891e-03  9.3317575998163260e-02 -1.6497339623496748e-03 3.0929284659042379e-03  9.2551627378349405e-02 -2.2639843486266195e-03 3.2458301774317480e-03  9.3571666113810570e-02 -1.6897665701931465e-03 3.5865088868272626e-03  9.3677157583432563e-02 -1.4936794277332264e-03 3.1406155647906863e-03  9.3012742299470805e-02 -2.1373263973917421e-03 3.3085810124991758e-03  9.3943399794114618e-02 -1.5891245435984223e-03 3.6305524325518216e-03  9.4031869353493794e-02 -1.3840687460313038e-03 3.1798289475445233e-03  9.3467439337924771e-02 -2.0643725446035164e-03 3.3612580739966528e-03  9.4294280595873206e-02 -1.5346303284803002e-03 3.6632815628247837e-03  9.4362654250805297e-02 -1.3186570296866665e-03 3.2091156719962601e-03  9.3905555052846229e-02 -2.0427724403947328e-03 3.4005799919882063e-03  9.4608403437758420e-02 -1.5274484954815328e-03 3.6841914775929772e-03  9.4651416751029782e-02 -1.3002116284280753e-03 3.2270188153557806e-03  9.4319469833902797e-02 -2.0751563796218534e-03 3.4215465665374300e-03  9.3577262856855373e-02 -1.6996564065570677e-03 2.8322076276011765e-03  9.3009656422703299e-02 -1.8842358452499737e-03 2.5347314757236715e-03  9.3256184494904651e-02 -1.6168870495996115e-03 2.5853059685465945e-03  9.3771809786271282e-02 -1.4625708064005623e-03 2.8786129040560757e-03  9.3563932570711217e-02 -1.4054971760754556e-03 2.6312541014627310e-03  9.4018497048624389e-02 -1.2623225272973292e-03 2.9226105956210217e-03  9.3892446311535538e-02 -1.2428326762128929e-03 2.6721258182999942e-03  9.4288862236346402e-02 -1.1001728949892131e-03 2.9609516295705449e-03  9.4215933579871403e-02 -1.1225880558866489e-03 2.7065576554297448e-03  9.4558921731418319e-02 -9.7453534221967925e-04 2.9926792072863906e-03  9.4512983494810174e-02 -1.0425964621433145e-03 2.7322786950945911e-03  9.4806337093789023e-02 -8.8377697005834535e-04 3.0169448352932397e-03  9.4761192032230462e-02 -1.0062197439742937e-03 2.7468357974946888e-03  9.5006676858587893e-02 -8.2760216986688757e-04 3.0329441869204601e-03  9.1928460587055200e-02 -2.4420683194833091e-03 2.6261375291230771e-03  9.2326064794959445e-02 -2.1558388783121775e-03 2.6909878551481001e-03  9.2749975879804991e-02 -1.9611223514488028e-03 2.7500796061258621e-03  9.3179888490389495e-02 -1.8276773860618927e-03 2.8045563732864865e-03  9.3602410870003067e-02 -1.7449067852907960e-03 2.8516775392110902e-03  9.4007295855975795e-02 -1.7110172915915012e-03 2.8869385391442565e-03  9.4386510399204301e-02 -1.7317430771127155e-03 2.9051593416652022e-03  9.6172471207088037e-02 -9.6352459331403310e-04 3.2405479928326935e-03  9.5445577254173561e-02 -1.2943070026544339e-03 3.8850246574591010e-03  9.5501121358012822e-02 -1.1877959408092868e-03 3.6180107769176579e-03  9.5548079166239530e-02 -9.8775749840833578e-04 3.6896662870691075e-03  9.5459609815081239e-02 -1.1029803634776041e-03 3.9864104601444834e-03  9.6185792937338241e-02 -7.6736382517347129e-04 3.3137521191419256e-03  9.5507074251865581e-02 -9.2860322397278624e-04 4.0725704087623505e-03  9.6226795591454070e-02 -5.8741950002439271e-04 3.3778375813107260e-03  9.5628661306103424e-02 -8.0929976892788553e-04 3.7517465819529379e-03  9.5575946192335018e-02 -7.7139658312262249e-04 4.1448754411092699e-03  9.6286989015239632e-02 -4.2253943625225029e-04 3.4319803546836295e-03  9.5729695350700764e-02 -6.5017147403796216e-04 3.8038620148838566e-03  9.5654909500373239e-02 -6.3017072838194503e-04 4.2038726514086015e-03  9.6358815038771514e-02 -2.7103247472939202e-04 3.4754925033539060e-03  9.5839800545264420e-02 -5.0864240954572590e-04 3.8456461924797911e-03  9.5732258189736588e-02 -5.0231613140978599e-04 4.2511827601763646e-03  9.6434714051483600e-02 -1.3002128291538976e-04 3.5085645990616883e-03  9.5947745964718112e-02 -3.8200024333843118e-04 3.8775102688611107e-03  9.5796370828977559e-02 -3.8503999919031810e-04 4.2896193700652360e-03  9.6508033863864959e-02 6.1764073861146342e-06 3.5333646328412271e-03  9.6041911436085994e-02 -2.6708702685424821e-04 3.9002648222534186e-03  9.5774900196580109e-02 -9.6609898261519091e-04 1.8757234169815436e-03  9.5250793241097323e-02 -1.0971242038901074e-03 2.1064795980842658e-03  9.5171508126089377e-02 -1.0988652777311461e-03 1.8915851327501035e-03  9.5266362925553350e-02 -9.1368200105857768e-04 1.9093176966012474e-03  9.5344787206341930e-02 -9.1369030359663133e-04 2.1263401027816482e-03  9.5855590237341221e-02 -7.9394071797629791e-04 1.8875628915963132e-03  9.5398569547911843e-02 -7.3718505511650696e-04 1.9283569902990092e-03  9.5473135183276187e-02 -7.4050276923686093e-04 2.1476543115014697e-03  9.5965796907184001e-02 -6.2590831639107718e-04 1.9025359395026433e-03  9.5551987640059066e-02 -5.7502113026109238e-04 1.9463404442741172e-03  9.5621387925473575e-02 -5.8112613294523550e-04 2.1680386405362115e-03  9.6093151594101006e-02 -4.6622245168313363e-04 1.9172334990778294e-03  9.5710306039499191e-02 -4.2746945596297184e-04 1.9620293067856755e-03  9.5774516179354133e-02 -4.3568523932913203e-04 2.1857363639401486e-03  9.6227405084537337e-02 -3.1515335826142550e-04 1.9297582709872580e-03  9.5856503744192800e-02 -2.9087942847640184e-04 1.9750489171332982e-03  9.5916786539132645e-02 -3.0041007739268729e-04 2.1996530144698326e-03  9.6358379652562803e-02 -1.6782505185850314e-04 1.9390496156764833e-03  9.5972111728256593e-02 -1.5467297035688543e-04 1.9868445011945110e-03  9.6031982830361060e-02 -1.6724346821420680e-04 2.2093139148857172e-03  9.6474551497541750e-02 -1.8515669753013545e-05 1.9435758361001664e-03  9.7405085096622088e-02 -6.1040280950559040e-04 2.3988387632437368e-03  9.7930311278201176e-02 -5.1081583887076633e-04 2.0461695627063507e-03  9.7383289727548325e-02 -6.6050670052178245e-04 2.5009921673178944e-03  9.7328577982810013e-02 -4.6537579145265935e-04 2.6081449647281183e-03  9.7860738283374424e-02 -3.0513828273559730e-04 2.1626036198507761e-03  9.7372279302156584e-02 -4.0825793938126205e-04 2.4858696232713533e-03  9.7292264021674360e-02 -2.7727044414011963e-04 2.7036834478355331e-03  9.7805489582403010e-02 -1.1382555563936541e-04 2.2653773893011276e-03  9.7356829986559437e-02 -2.1868755772625815e-04 2.5613296357539445e-03  9.7274813979266350e-02 -9.9364199330281481e-05 2.7845298645632673e-03  9.7769337890848379e-02 6.7671491461986094e-05 2.3547092413441248e-03  9.7358670814199369e-02 -4.1569679997788852e-05 2.6252224705804864e-03  9.7274371712385968e-02 6.9872316414099753e-05 2.8510438471050694e-03  9.7751412399135457e-02 2.4245435486926802e-04 2.4299293396280049e-03  9.7376239590627162e-02 1.2552401524596379e-04 2.6766251181086511e-03  9.7289171311151251e-02 2.3250051644040559e-04 2.9043465136941861e-03  9.7751874765046376e-02 4.1237399755887692e-04 2.4900294383790001e-03  9.7407986419999620e-02 2.8567364364175758e-04 2.7151802367305585e-03  9.7319195138564588e-02 3.9793911266286221e-04 2.9479080544138766e-03  9.7777512425064592e-02 5.7364142609329666e-04 2.5321988254427301e-03  9.7455168358920014e-02 4.4821172609912138e-04 2.7439402075165767e-03  9.3430280178730285e-02 -1.8285489907425509e-03 3.2106792470606282e-03  9.3643837907568334e-02 -1.5905902582325820e-03 3.2679632850641546e-03  9.3905493755915059e-02 -1.3915118277162705e-03 3.3196429407423389e-03  9.4189535669463628e-02 -1.2334532990556707e-03 3.3640026794057184e-03  9.4473653977389924e-02 -1.1139978819545635e-03 3.4002323336179397e-03  9.4737021511312469e-02 -1.0312044000754608e-03 3.4280236619158625e-03  9.4957348304959832e-02 -9.8461124423703601e-04 3.4479950871412332e-03  9.5019975752926797e-02 -1.2080331141698451e-03 2.6943626112201149e-03  9.5123746936371989e-02 -1.0160668875499222e-03 2.7192250275743317e-03  9.5263295484228266e-02 -8.3968777094426815e-04 2.7465906368916385e-03  9.5423154638899457e-02 -6.8188777880139062e-04 2.7725123327557912e-03  9.5587981219705007e-02 -5.4258802224880576e-04 2.7942156223006694e-03  9.5741913060924028e-02 -4.1867836246346627e-04 2.8098155902297100e-03  9.5868558119506772e-02 -3.0380918719759813e-04 2.8184951274209361e-03  9.4737495082267448e-02 -1.5655300270456993e-03 4.2391423268369746e-03  9.4801808689931613e-02 -1.3637644395828865e-03 4.3375800080640761e-03  9.4905430675536986e-02 -1.1870940303959833e-03 4.4205834180367056e-03  9.5031458939179511e-02 -1.0346364740691824e-03 4.4886230095117436e-03  9.5164974615528392e-02 -9.0455459174544617e-04 4.5424570025415709e-03  9.5291582611471290e-02 -7.9372421516845770e-04 4.5833870419351962e-03  9.5396414095801380e-02 -6.9789580662372357e-04 4.6134137444606713e-03  9.6213653283390710e-02 -1.0043727496861822e-03 3.3601692546332842e-03  9.6198933698853822e-02 -8.1206421764759128e-04 3.4541748186681376e-03  9.6213295702467644e-02 -6.3364028055210703e-04 3.5359657570589857e-03  9.6248277890496656e-02 -4.6809703798428271e-04 3.6047107870915600e-03  9.6295875260711136e-02 -3.1393136965276525e-04 3.6613026508651911e-03  9.6347793437561016e-02 -1.6906708340864640e-04 3.7073665776941140e-03  9.6396210481011213e-02 -3.0310239025172549e-05 3.7446879111001307e-03  9.6909808787509558e-02 -7.1969806878441366e-04 1.5577272379720961e-03  9.6383364492803603e-02 -8.4089425426515669e-04 1.8210566807513593e-03  9.6340841178389161e-02 -8.4094254573270090e-04 1.6101879276203704e-03  9.6417249812854322e-02 -6.7796498548752988e-04 1.6175953364024425e-03  9.6457142865122497e-02 -6.7510058251604667e-04 1.8315074572705385e-03  9.6982945913075866e-02 -5.4809185251818875e-04 1.5644316991515412e-03  9.6509892856753890e-02 -5.1145702676454272e-04 1.6288564050338608e-03  9.6547009689033111e-02 -5.0818414557446141e-04 1.8454134641902721e-03  9.7060259994771025e-02 -3.7945307353173845e-04 1.5757511573115685e-03  9.6615384592986395e-02 -3.5040470582899656e-04 1.6400280871274805e-03  9.6649901865769980e-02 -3.4751090060085451e-04 1.8590597175349424e-03  9.7147040240965279e-02 -2.1595587587149419e-04 1.5875581552854342e-03  9.6730577019450120e-02 -1.9593464018741080e-04 1.6491110964074128e-03  9.6762930001964037e-02 -1.9387469445867727e-04 1.8697529294430331e-03  9.7246414064483436e-02 -5.7676333919412291e-05 1.5964961839133335e-03  9.6853327969779204e-02 -4.3890616348676891e-05 1.6551417645778211e-03  9.6884301103606435e-02 -4.3204250250802890e-05 1.8754391371868520e-03  9.7362759628409484e-02 9.8283868954826003e-05 1.5995155533940616e-03  9.6987728670447262e-02 1.1839501486377501e-04 1.6588613712386171e-03  9.7014532236823436e-02 1.1564735635155331e-04 1.8751879464302841e-03  9.7507239090541112e-02 2.5203463865942704e-04 1.5929692511293303e-03  9.5902273775983204e-02 -1.1842858119869993e-03 3.6989781691273275e-03  9.5202378695154952e-02 -1.4776445145048519e-03 4.1679502902001080e-03  9.5196674235669937e-02 -1.2993040230562037e-03 4.2962359898251487e-03  9.5867629749104039e-02 -1.0030651209466063e-03 3.8236798494199094e-03  9.5214913946770771e-02 -1.1351679711768434e-03 4.4095901322568788e-03  9.5861193723827398e-02 -8.3451813533030178e-04 3.9299313303755119e-03  9.5255498086488283e-02 -9.8659309843161683e-04 4.5060678759423559e-03  9.5875290314120176e-02 -6.7622508655716175e-04 4.0207466794937871e-03  9.5307756135867852e-02 -8.5333387396887390e-04 4.5865683622120165e-03  9.5901798577972958e-02 -5.2728808080119342e-04 4.0982070611306192e-03  9.5360631360457457e-02 -7.3289414925383465e-04 4.6533195172976634e-03  9.5932674885810074e-02 -3.8603290596941664e-04 4.1647045915426100e-03  9.5411106383570560e-02 -6.1987628580245679e-04 4.7085905060342192e-03  9.5960819517121376e-02 -2.5177553825183577e-04 4.2225531901093081e-03  9.5766753778937175e-02 -9.4986823589338824e-04 1.6221617959135523e-03  9.5849256831789562e-02 -7.7644356817778198e-04 1.6354717379448809e-03  9.5961420440536377e-02 -6.0751835910131848e-04 1.6495156697261418e-03  9.6091398890313082e-02 -4.4600727209963395e-04 1.6626471066526227e-03  9.6228464580668818e-02 -2.9272471474536279e-04 1.6741544893918146e-03  9.6361992264122134e-02 -1.4321189205564091e-04 1.6842195493205088e-03  9.6479175380954574e-02 1.1311963495717780e-05 1.6942890942011684e-03  9.7872997045400117e-02 -5.6353368938674990e-04 1.0946976926728802e-03  9.7277935937448323e-02 -6.5359582418033789e-04 1.2745607615625555e-03  9.7413237380386153e-02 -6.2623907013983340e-04 1.0610369805318122e-03  9.7482766781256239e-02 -4.4531482843098883e-04 1.0691740039640478e-03  9.7349060011735780e-02 -4.7593241385825125e-04 1.2805221281499189e-03  9.7927738221379873e-02 -3.6956316521261166e-04 1.1016876858210912e-03  9.7555336442025395e-02 -2.6921400188503926e-04 1.0791806515911787e-03  9.7423058963128195e-02 -3.0202549497896112e-04 1.2894918284421829e-03  9.7984754391061232e-02 -1.8537968811809343e-04 1.1125961639832868e-03  9.7637384694065452e-02 -9.9361834024007097e-05 1.0891295546115632e-03  9.7505927765214162e-02 -1.3431660750516598e-04 1.2986789741428219e-03  9.8051271245313001e-02 -1.0555803834434287e-05 1.1235958098372092e-03  9.7734148410620281e-02 6.3508851795326631e-05 1.0975556968459018e-03  9.7602882108915892e-02 2.7047089428817576e-05 1.3054947571687074e-03  9.8133444153150132e-02 1.5388588375448865e-04 1.1316466180279724e-03  9.7851636352575266e-02 2.2149708729360940e-04 1.1026742475481485e-03  9.7718782482665675e-02 1.8313049417904842e-04 1.3079192833593402e-03  9.8238667699965310e-02 3.0727637631461298e-04 1.1336711213751226e-03  9.7976505749808138e-02 3.7020077404964388e-04 1.1033708871400452e-03  9.7855088048049266e-02 3.3510025491122577e-04 1.3037947185480674e-03  9.8346335546475636e-02 4.4658351311517070e-04 1.1283953689618703e-03  9.9300761339149918e-02 -4.5973242094529064e-04 6.4572444214003018e-04  9.8959394921834865e-02 -4.4084984249495514e-04 9.7147984919861098e-04  9.8910064191677208e-02 -4.6157346611097713e-04 9.2964177308273871e-04  9.8884768588840335e-02 -2.5031896009010255e-04 9.7037161006929438e-04  9.8913769834514761e-02 -2.3348627479405902e-04 1.0193253586445715e-03  9.9272486737127880e-02 -2.7459963188517243e-04 6.9926386889351908e-04  9.8901169564322600e-02 -4.5169993930579334e-05 1.0114521065695172e-03  9.8917536187992997e-02 -2.9914534995739508e-05 1.0677606818817451e-03  9.9297306486635553e-02 -7.7590952397782784e-05 7.6005238153406085e-04  9.8926006723681473e-02 1.5520940346631666e-04 1.0462062655051082e-03  9.8935868855513504e-02 1.7178773714231240e-04 1.1108833536659501e-03  9.9319218583438090e-02 1.2350494975851893e-04 8.2497564166852141e-04  9.8951464938236533e-02 3.4506416560224097e-04 1.0705088345846856e-03  9.8954261276603256e-02 3.6499770360720368e-04 1.1442536842127746e-03  9.9321517968923786e-02 3.2621916344414747e-04 8.7676329518041616e-04  9.8977957464644342e-02 5.1689778089232031e-04 1.0834350307300630e-03  9.8968755304551764e-02 5.4142214071829515e-04 1.1632077100976589e-03  9.9297449721291606e-02 5.1099870647843969e-04 9.0947296127930966e-04  9.9012270551282686e-02 6.6434487522388889e-04 1.0828801054976927e-03  9.8983424015281152e-02 6.9592829889666269e-04 1.1662097844778896e-03  9.9257460335097872e-02 6.6043546930944592e-04 9.2144917743975274e-04  9.3866522366347765e-02 -1.5223858431739081e-03 2.4089532446801335e-03  9.3692451921736794e-02 -1.5278476452033150e-03 2.0500576866569744e-03  9.3870920833084376e-02 -1.2858199702670747e-03 2.0844436930204310e-03  9.4032952430133543e-02 -1.2948783225689682e-03 2.4460221778429304e-03  9.4109983433884631e-02 -1.0794304758812477e-03 2.1172480075389659e-03  9.4251581582184427e-02 -1.0962586615537576e-03 2.4815712105265850e-03  9.4373647179877090e-02 -9.1040268607098988e-04 2.1482171242567997e-03  9.4495491248515223e-02 -9.3063422472984666e-04 2.5137119335759232e-03  9.4635242917544771e-02 -7.7555859343996002e-04 2.1757067321157577e-03  9.4739915765473415e-02 -7.9749455483041549e-04 2.5408912371572318e-03  9.4870963852720674e-02 -6.7245029897528442e-04 2.1976253260102812e-03  9.4961430372053818e-02 -6.9534733026567681e-04 2.5618286252000804e-03  9.5054896169262063e-02 -5.9943095351478782e-04 2.2111264174314430e-03  9.5136273242271890e-02 -6.2222514042295973e-04 2.5760008219531910e-03  9.6896751395975547e-02 -7.0909702571862591e-04 1.1823972355978977e-03  9.6303300969428851e-02 -8.3419013790001786e-04 1.3909330539046809e-03  9.6328025316185242e-02 -7.8827680240476142e-04 1.0778518535559502e-03  9.6409864134759687e-02 -6.1839178086528089e-04 1.0940248507150885e-03  9.6384066078474759e-02 -6.7166280181545372e-04 1.4023630957966798e-03  9.6976827720594461e-02 -5.3922377262531011e-04 1.1929405676684892e-03  9.6509236362842588e-02 -4.4631084752551028e-04 1.1076971068401326e-03  9.6479639140166495e-02 -5.0348492426165192e-04 1.