<?xml version="1.0"?>
<VTKFile type="UnstructuredGrid"  version="0.1"  >
<UnstructuredGrid>
<Piece  NumberOfPoints="933" NumberOfCells="3996">
<Points>
<DataArray  type="Float64"  NumberOfComponents="3"  format="ascii">6.85927697485309 1.705631814807317 3.415777548643188  6.755979634133197 1.720516645470522 3.472960851723151  6.774640884423053 1.643437565701409 3.325026362984295  6.783237683439181 1.58851841230229 3.354206937947657  6.764982585255471 1.664476040624427 3.50412782346661  6.86838480599726 1.64973649251708 3.446396731212062  6.791875312796977 1.533598810987243 3.383342243258619  6.774017176661497 1.608432742029222 3.535253743442545  6.877530167307456 1.59384078344394 3.476968020960036  6.800539659777367 1.478684862846354 3.412441623388902  6.783072786523706 1.552390512893722 3.566345828666686  6.886697185428003 1.537949008593301 3.507501560500287  6.809217470306116 1.423777819257498 3.441515301256769  6.792136486827943 1.496350121491264 3.597409654397752  6.895872814956575 1.4820635461706 3.538006724692418  6.81789826041013 1.368876496622784 3.470571445183738  6.801196811743074 1.440309907097983 3.628447865236347  6.905045419139202 1.426182932729065 3.568491199194649  6.826580558984052 1.313975444399499 3.499613122680349  6.810251312120212 1.384272544157899 3.659457784145582  6.91419985259742 1.370300356637983 3.598959099891629  6.922849954344042 1.515369999233821 3.037944157662339  6.822895803690695 1.521314061370262 3.080370089301905  6.864060687842186 1.456588252250405 2.953375343635163  6.873766394529201 1.403476554501645 2.983646325744158  6.831980885317869 1.468117764281875 3.109624240646931  6.931928917858954 1.461728608925128 3.067336497354194  6.883537083679422 1.350364282090402 3.013841386199951  6.841124178219464 1.414919677169152 3.138817527842669  6.94106850115194 1.408086928881741 3.096657096976019  6.893341268838345 1.29726248451328 3.043985510933136  6.85030092551171 1.361728857563416 3.167966021716765  6.950238599594964 1.354455157763663 3.12592499215103  6.903150401668 1.244178273289527 3.074106434849339  6.859489818619156 1.308551611097121 3.197091251289118  6.95941373320454 1.300841774443105 3.155165967057411  6.912940200501258 1.191119732643149 3.104237730946874  6.868674185107411 1.255393787685109 3.226219092664391  6.968571964934531 1.247251948085013 3.184412231413023  6.922708329695618 1.138097665317629 3.134431081901669  6.877854759062106 1.202258306019394 3.255382280317952  6.977697785003233 1.193681395844586 3.213710276449535  6.701215934827885 1.506326944381693 3.09048242728125  6.621241254051949 1.536320208894643 3.170347868008209  6.602493066954372 1.459003276443078 3.038362961872296  6.611627705544473 1.407338873868859 3.068189647978773  6.630010937794522 1.483636263139645 3.199177300612288  6.7103360118106 1.453827981312601 3.119695430846401  6.620830415758601 1.355668733152867 3.097966725104373  6.638836764279573 1.430948544126064 3.227969002955318  6.719519857008538 1.40132512648945 3.148860505514656  6.630073922015664 1.304001458642186 3.127711317491729  6.647697591127049 1.378263794187946 3.256730979464025  6.728741111833766 1.348825706088097 3.177990183482887  6.639331593589816 1.252341215190803 3.157440173606721  6.656574377646432 1.325584787393846 3.285473827757358  6.737977852318735 1.29633497817846 3.207100731085631  6.64857748400157 1.2006919942942 3.187172109013833  6.665449757064536 1.272911952072019 3.314209032868822  6.747210431991824 1.24385606509869 3.236211524563613  6.657782175906089 1.149059785840874 3.216935875255573  6.674303689852258 1.220242736194854 3.342948901218341  6.75642111007504 1.191391625557787 3.265346419050365  7.292756227993745 1.300991715429311 2.408625508836266  7.284177267023757 1.324468177797491 2.52207737481427  7.181974771561969 1.297278564744588 2.479902748850964  7.190580282547489 1.235358274923346 2.494036321681926  7.292545508266485 1.264994375709299 2.541068123898997  7.301204514821936 1.239035292882871 2.419305040832407  7.199184897634241 1.173505694016763 2.508167253060124  7.300927635793002 1.205596691878193 2.560028298454286  7.309662289330936 1.177152462821939 2.430013151202469  7.207756946790779 1.111708451301573 2.522284102603933  7.309286989016273 1.146251884390441 2.578963971086933  7.318087063072966 1.115320212159839 2.440720483000406  7.216282835461029 1.049961150275544 2.536390486342949  7.317600037944199 1.086954278520713 2.597883241611036  7.326466550422058 1.053532761033975 2.451422135079984  7.22474152092977 0.9882648360248336 2.55048837526752  7.325837304447353 1.027712001785456 2.616790709235295  7.334780376813269 0.9917938594395702 2.462111506942326  7.233089724055974 0.9266141093006814 2.564560959901237  7.333999562160336 0.9685533526169448 2.635696109118987  7.342980390921398 0.9301045036009321 2.472787228585399  6.727594931546933 1.448049960560157 2.98053628313602  6.737004785304364 1.395826523043678 3.010715457371623  6.746475861921311 1.343596855284548 3.040827810171403  6.755985294552258 1.291372219336766 3.070899761007609  6.765507195829916 1.239158513924025 3.100954148590876  6.77502022648271 1.186962858642313 3.131017423988956  6.784520184855094 1.134805047654034 3.161129872947346  6.665308605699218 1.673728433410707 3.412903214577237  6.674223758415772 1.618392130984562 3.442652575324438  6.683183266128516 1.563057761623374 3.472365512081603  6.692169786331167 1.507724576420681 3.502048076407704  6.701168486022461 1.452392452621891 3.531704680712071  6.710165718262607 1.397059473983185 3.561337052245103  6.719144293692368 1.341723477824013 3.590940910746591  7.20171463712837 1.285402893763407 2.35799098593728  7.208049120836899 1.221858378789534 2.364395505738853  7.214310323970917 1.158357843813938 2.370849911129554  7.220519031127771 1.094898911687455 2.377316016779236  7.226682889858678 1.03147325803308 2.383783923990276  7.232805368767949 0.9680768670147351 2.390243348902491  7.238911718659836 0.9047237047037806 2.396667981232961  6.886749078296035 1.663021663201669 3.329200554728421  6.895584076052031 1.607544486037228 3.358700661611862  6.904460645640236 1.552071238140072 3.388146490047558  6.913360774399202 1.496604525271633 3.417552170281807  6.922271089258007 1.441146980696464 3.446930483767245  6.93117988359416 1.385700772113063 3.476292065505162  6.940071539373325 1.33025648363633 3.505644879655778  6.868039236042506 1.627144839378125 3.265893058908872  6.847231939289813 1.590237195757325 3.201127191731985  6.855913518894471 1.535961393492363 3.229768457080073  6.876595978864493 1.572088466762598 3.294525287951062  6.885194954930828 1.517037928986003 3.323103403699514  6.864645819584317 1.481689692716815 3.258353355191062  6.893820895353565 1.461994373515586 3.351640859251731  6.87340844687986 1.427424456995676 3.286897026674644  6.902458237430343 1.406961692932287 3.380152405027143  6.882184287299599 1.373170706708437 3.315415729623656  6.911093915434036 1.351941584040024 3.408652226119213  6.890959226092989 1.318930243570833 3.343928158708307  6.919719424080197 1.29692493120866 3.437147090196892  6.899723333790509 1.264698406905587 3.372448662464945  6.94905280902504 1.433097369387354 2.885296736216987  6.865091395701301 1.383511016291151 2.824489423750423  6.874815133369418 1.328419092406428 2.853201520300374  6.959024564825457 1.379174337900393 2.915452716775209  6.884597443898632 1.273338970136524 2.881837313526385  6.969071788376752 1.325261443888625 2.945524199301967  6.894405642391797 1.218278283606678 2.910425751514017  6.979149799290341 1.271365811171182 2.975539367229707  6.904209984860313 1.16324179403761 2.938996542779334  6.989221080080772 1.217492868973477 3.005529407271923  6.913987840421848 1.10823869864704 2.967584567767145  6.999250981277008 1.163648503636788 3.035532472736118  6.923759005640165 1.053281083684413 2.996235083370661  7.009217369232196 1.109835231499205 3.065609455931213  6.938382370453252 1.337067207090789 2.706360831972383  6.987697431193703 1.391203266295992 2.794641460532194  6.997653507592749 1.335963837436872 2.823842897218229  6.947729531486886 1.278638602109544 2.731697844570415  7.007691874315626 1.280738603450489 2.852957239809568  6.957079759156972 1.220240315077539 2.756969699033259  7.017750400938684 1.225534100543236 2.882016511371998  6.966428169123667 1.161876134332716 2.782198988928048  7.027792764919711 1.170355358999717 2.911053552304468  6.975762927147999 1.103547062029079 2.807411560844039  7.03778404207327 1.115203108409867 2.940109600785076  6.985087145332154 1.045259193924053 2.832634749197936  7.047673091130216 1.060066940177109 2.969247623203526  6.994452709383616 0.9869947668398238 2.857910280016985  6.809348647138408 1.259988516005918 2.53309452583414  6.77685753211586 1.284075539382721 2.633541364244772  6.677060894674963 1.251088968878199 2.587808869884199  6.687252764545717 1.190577689369599 2.605190546968829  6.786378015380012 1.224676580630341 2.655234292580887  6.818412007433365 1.19740842793528 2.547513086384563  6.697481930874289 1.130115231369834 2.622516143931275  6.795918695387256 1.165318026294252 2.676852633695235  6.827477007290726 1.13488392809218 2.56188734178641  6.707735756009765 1.069697767873222 2.639811555738397  6.805474397018862 1.105991913679405 2.698436414102977  6.836549710954078 1.072405707555141 2.576236619059733  6.717999571336413 1.009323401773825 2.65709684861203  6.815034637089737 1.046697607724988 2.720009112054304  6.845622498796734 1.00996852348281 2.590576200613845  6.728271702533951 0.9490127189750799 2.674384699702427  6.824606373302496 0.9874475604766005 2.741591901631119  6.854703108256134 0.9475795930580808 2.604916559286256  6.738584791678656 0.8888068926860043 2.691678477371031  6.834261936204999 0.9282894553260161 2.763208322516394  6.863904061381084 0.885263585370766 2.619272145889655  6.752174070868327 1.111006367166735 2.47585572232122  6.761827746427692 1.048082788565818 2.486009031330036  6.771492173523812 0.9851922503130159 2.496157856296596  6.781174158226453 0.922331924
[...]
<PointData  Vectors="f_16"> 
<DataArray  type="Float64"  Name="f_16"  NumberOfComponents="3" format="ascii">4.4894327283208552e-02 -1.5451846109400369e-02 1.5351228686883255e-02  4.5686685194867530e-02 -1.5924335938855245e-02 1.5882374862509041e-02  4.5656944121112694e-02 -1.5658430506081594e-02 1.4992826203496639e-02  4.6023345324055755e-02 -1.5873820369167541e-02 1.4872036659440894e-02  4.6086190824272878e-02 -1.6144275210790798e-02 1.5785205906120512e-02  4.5274714934427591e-02 -1.5665609161058965e-02 1.5251599776792798e-02  4.6377897626021854e-02 -1.6084541477643099e-02 1.4764159331114734e-02  4.6473127215704665e-02 -1.6354829593401309e-02 1.5697219125046329e-02  4.5642541731746873e-02 -1.5873190478248336e-02 1.5163113152001625e-02  4.6723577461122913e-02 -1.6292496004780131e-02 1.4663838240115957e-02  4.6850437564775582e-02 -1.6557839876023911e-02 1.5613905208451942e-02  4.6001710488196651e-02 -1.6077527255197357e-02 1.5081274096819461e-02  4.7063375672428624e-02 -1.6499689626971625e-02 1.4565636337220883e-02  4.7222263629501354e-02 -1.6754922227935783e-02 1.5531126278636427e-02  4.6355823381504457e-02 -1.6280351969216678e-02 1.5001350583275258e-02  4.7399318476904040e-02 -1.6707733228271012e-02 1.4464231942621704e-02  4.7592267927999650e-02 -1.6947723984793960e-02 1.5444978108648715e-02  4.6707896730013632e-02 -1.6482436393238153e-02 1.4918847237466752e-02  4.7730789687820699e-02 -1.6917744010657879e-02 1.4353604364797134e-02  4.7961164551779789e-02 -1.7139925340096118e-02 1.5352395244431036e-02  4.7061016221973354e-02 -1.6679642155278642e-02 1.4828021985755625e-02  4.4840520348112617e-02 -1.4741724568896466e-02 1.2951723049807490e-02  4.5556301030563823e-02 -1.5109129701786551e-02 1.3398768451203524e-02  4.5475759358631865e-02 -1.4838381335263709e-02 1.2487750986414000e-02  4.5779638298795527e-02 -1.5009698839197809e-02 1.2373430377972637e-02  4.5881222464046974e-02 -1.5302962489138086e-02 1.3268988814096487e-02  4.5147911898697636e-02 -1.4923461647962929e-02 1.2833347824440660e-02  4.6068901379207140e-02 -1.5190171510082362e-02 1.2286573525687993e-02  4.6192632829628620e-02 -1.5498607176551955e-02 1.3161252058063726e-02  4.5442405377412606e-02 -1.5112434963000378e-02 1.2739726062338521e-02  4.6350948279491461e-02 -1.5384104530115385e-02 1.2218540272156275e-02  4.6495787358028506e-02 -1.5700455293174105e-02 1.3068113750116307e-02  4.5730271785246641e-02 -1.5311704227629711e-02 1.2662938402396053e-02  4.6631583655742888e-02 -1.5594152163937770e-02 1.2160096900075492e-02  4.6794878734313192e-02 -1.5911731148326023e-02 1.2981534763630254e-02  4.6016978695661716e-02 -1.5523959832149832e-02 1.2594510550150538e-02  4.6915189223269850e-02 -1.5822169476155862e-02 1.2102164742794718e-02  4.7092690681144841e-02 -1.6135424790808404e-02 1.2892678330270770e-02  4.6306938035189281e-02 -1.5751136598691446e-02 1.2525121755471972e-02  4.7204370703201562e-02 -1.6068166760576614e-02 1.2034667773816019e-02  4.7388460538010733e-02 -1.6374353742637300e-02 1.2791463857688784e-02  4.6603711241973614e-02 -1.5995748809737462e-02 1.2445527567348411e-02  4.6506441434454704e-02 -1.5538315363303780e-02 1.3676136203217925e-02  4.7046176521055381e-02 -1.5975107692071496e-02 1.4332853766197948e-02  4.7395232231726481e-02 -1.5802268840682084e-02 1.3487378742584270e-02  4.7731562984087789e-02 -1.6007320217783647e-02 1.3345278625380586e-02  4.7396883960294942e-02 -1.6192658581450397e-02 1.4189745548719402e-02  4.6843333350521980e-02 -1.5740805183204441e-02 1.3537063025267570e-02  4.8050353383421542e-02 -1.6209948073043805e-02 1.3225565696347794e-02  4.7731576472731421e-02 -1.6404297245306575e-02 1.4062676471869383e-02  4.7164376605658150e-02 -1.5942080840440107e-02 1.3418652157954482e-02  4.8358549760153316e-02 -1.6415618397548338e-02 1.3119960606777030e-02  4.8055942348825272e-02 -1.6613958144038422e-02 1.3945562755277925e-02  4.7475512147464385e-02 -1.6146070566989794e-02 1.3313209221481211e-02  4.8662168195929521e-02 -1.6628370550001218e-02 1.3019954389570895e-02  4.8374776166065801e-02 -1.6825247967196453e-02 1.3831541436935576e-02  4.7781402636840394e-02 -1.6356442582396886e-02 1.3213158086661377e-02  4.8967358384768588e-02 -1.6852346378067477e-02 1.2916707760549517e-02  4.8692784867802957e-02 -1.7041479750484638e-02 1.3713028154196932e-02  4.8086448539619714e-02 -1.6576981456392439e-02 1.3110289842441438e-02  4.9282212409531297e-02 -1.7091567440297852e-02 1.2800721686150159e-02  4.9015537870012948e-02 -1.7265590923498931e-02 1.3580884330919812e-02  4.8396342890849500e-02 -1.6813295672975209e-02 1.2996270621420319e-02  4.3709680612265912e-02 -1.4607138218091139e-02 8.4238965709443597e-03  4.3445658547175428e-02 -1.4319083336152774e-02 9.1372288332677749e-03  4.4388838764371476e-02 -1.4499687060704708e-02 8.9718716694414911e-03  4.4530112167171357e-02 -1.4569327539295603e-02 9.0573016093248322e-03  4.3571543030831494e-02 -1.4380160332190759e-02 9.2091354906948496e-03  4.3814539030660585e-02 -1.4678552772017026e-02 8.5532800043744261e-03  4.4678926684758716e-02 -1.4693741331463093e-02 9.1502716945507968e-03  4.3702100470623007e-02 -1.4499714716125319e-02 9.2946656551216016e-03  4.3927157466728060e-02 -1.4802341614837851e-02 8.6776932553942736e-03  4.4839861609290474e-02 -1.4860328927142624e-02 9.2504790001768748e-03  4.3844593805718708e-02 -1.4662035629728148e-02 9.3900238667379583e-03  4.4053145196350632e-02 -1.4968853068475283e-02 8.8036705489913311e-03  4.5018361258535096e-02 -1.5060962305909481e-02 9.3574802136435400e-03  4.4008289258868252e-02 -1.4859548718385990e-02 9.4941374534343089e-03  4.4194636471979673e-02 -1.5171241528213706e-02 8.9345877840397887e-03  4.5202918186166383e-02 -1.5290594246373641e-02 9.4771995202816983e-03  4.4179428335277673e-02 -1.5087745561006262e-02 9.6181078941354713e-03  4.4345263117223241e-02 -1.5402355397627592e-02 9.0743884552615187e-03  4.5380257752752180e-02 -1.5538420446778629e-02 9.6195363160345802e-03  4.4342182215880023e-02 -1.5338970071193466e-02 9.7753750739193648e-03  4.4485776770774504e-02 -1.5652433338750282e-02 9.2353685012651794e-03  4.6500755297865681e-02 -1.5285881277546610e-02 1.2891853064189305e-02  4.6820922158677641e-02 -1.5471181684782271e-02 1.2761404217576272e-02  4.7127169117561145e-02 -1.5661189822523760e-02 1.2658358609055570e-02  4.7424244454547057e-02 -1.5859367604324121e-02 1.2572668811456054e-02  4.7717248754123066e-02 -1.6069672617596766e-02 1.2494703790255553e-02  4.8010408776576745e-02 -1.6296082024819240e-02 1.2415433663969536e-02  4.8307010244246898e-02 -1.6544871534562640e-02 1.2327006915134770e-02  4.6462312697267097e-02 -1.6223023289540589e-02 1.5718447187885520e-02  4.6851866766711443e-02 -1.6445818925148806e-02 1.5602916300291030e-02  4.7225995724341940e-02 -1.6660035195692535e-02 1.5496860377925250e-02  4.7589484661838953e-02 -1.6866318908962698e-02 1.5395395001065184e-02  4.7947076895498764e-02 -1.7066240955592352e-02 1.5294322085223305e-02  4.8303339619419947e-02 -1.7261507042297435e-02 1.5189861493112349e-02  4.8662928289323670e-02 -1.7454539858276882e-02 1.5079445372180226e-02  4.4599804881570185e-02 -1.4774020761904795e-02 8.1900450059294496e-03  4.4706694493992692e-02 -1.4857273712004574e-02 8.3443989970414089e-03  4.4838812174747368e-02 -1.4985886523547437e-02 8.4889976769287907e-03  4.4987145856601213e-02 -1.5153395782384874e-02 8.6324203127530804e-03  4.5150137913152810e-02 -1.5353210147389615e-02 8.7786339058037628e-03  4.5325011766059436e-02 -1.5583837769666086e-02 8.9303279374384099e-03  4.5481991986967452e-02 -1.5851399221501996e-02 9.1002917636748715e-03  4.4758459531684197e-02 -1.5247426851122736e-02 1.4795341957495033e-02  4.5116819090288460e-02 -1.5457238076347319e-02 1.4684616617656413e-02  4.5463674878920869e-02 -1.5664316320287950e-02 1.4587623250507081e-02  4.5802624613972762e-02 -1.5870977906992215e-02 1.4499145319012089e-02  4.6136657078066433e-02 -1.6079115416421371e-02 1.4413574666783197e-02  4.6468173616329482e-02 -1.6290434371750227e-02 1.4325350648091780e-02  4.6799365159142597e-02 -1.6500796962800691e-02 1.4226977694868904e-02  4.4968892540579258e-02 -1.5228215088544127e-02 1.4460080271082266e-02  4.5200243757134669e-02 -1.5204469454962661e-02 1.4111362889382185e-02  4.5539809908365286e-02 -1.5407506567098947e-02 1.3984678414911840e-02  4.5316826558947969e-02 -1.5434713977718229e-02 1.4339239444620032e-02  4.5654396233407578e-02 -1.5640553131679488e-02 1.4233666127687408e-02  4.5867136725480741e-02 -1.5610862399284752e-02 1.3875521320463295e-02  4.5983857460304964e-02 -1.5847522990102992e-02 1.4137678079980395e-02  4.6186164107714124e-02 -1.5816846260506872e-02 1.3777443992687632e-02  4.6308380766436993e-02 -1.6057777602387791e-02 1.4045205874657806e-02  4.6500297335595214e-02 -1.6027905559025467e-02 1.3683672201004698e-02  4.6630187993067708e-02 -1.6272846860015060e-02 1.3949985395743485e-02  4.6811759055897406e-02 -1.6246200314915880e-02 1.3586996004318648e-02  4.6949396812346257e-02 -1.6491904431398974e-02 1.3845169553090725e-02  4.7121598298061500e-02 -1.6473582907442781e-02 1.3479780724303579e-02  4.4971094928930644e-02 -1.4558893881547639e-02 1.1897323651836173e-02  4.5813623517489188e-02 -1.4758527264712728e-02 1.1604480355849779e-02  4.6096134255138074e-02 -1.4901415800371437e-02 1.1508803360956298e-02  4.5253086592576416e-02 -1.4710978683283535e-02 1.1801645393903704e-02  4.6369706429970022e-02 -1.5063449534937150e-02 1.1445438512326756e-02  4.5519983451689547e-02 -1.4880162402924347e-02 1.1736693532569977e-02  4.6639198976464874e-02 -1.5247609714758496e-02 1.1403407903511664e-02  4.5781661214926828e-02 -1.5068871787917805e-02 1.1692807635675057e-02  4.6908842001547033e-02 -1.5454587907894916e-02 1.1373038656058643e-02  4.6046387429436765e-02 -1.5278018241123667e-02 1.1660483563739790e-02  4.7180404297833836e-02 -1.5684162741500200e-02 1.1346216445921962e-02  4.6321538891873300e-02 -1.5506737363108779e-02 1.1630773176921851e-02  4.7453749668185850e-02 -1.5933389438177275e-02 1.1312235977617744e-02  4.6611937136527712e-02 -1.5751867366954601e-02 1.1593592524598163e-02  4.5608165194731938e-02 -1.4588930873078873e-02 1.0709845272071030e-02  4.4916605081319914e-02 -1.4451819830840843e-02 1.1239269354000429e-02  4.5176819238123105e-02 -1.4581372298211883e-02 1.1166545416518179e-02  4.5849277693486963e-02 -1.4701008437029870e-02 1.0659050015344309e-02  4.5422543365389596e-02 -1.4736616169372769e-02 1.1128267692420273e-02  4.6094463040657098e-02 -1.4846763357454605e-02 1.0638952287192862e-02  4.5666481981144015e-02 -1.4918414005516925e-02 1.1112301281842006e-02  4.6342872879654273e-02 -1.5025336451416545e-02 1.0639443657100667e-02  4.5917219459143531e-02 -1.5125499401043975e-02 1.1109228995615287e-02  4.6595518799221448e-02 -1.5233596414849294e-02 1.0652544022991487e-02  4.6182428202453836e-02 -1.5352859203202276e-02 1.1111045738504063e-02  4.6848609418518511e-02 -1.5465072208944825e-02 1.0671202440259552e-02  4.6465824630118863e-02 -1.5592137517826848e-02 1.1112917556457162e-02  4.7088335924621368e-02 -1.5703764583739285e-02 1.0685240487145716e-02  4.7085603464580954e-02 -1.4907776036208005e-02 9.8183966517129198e-03  4.7049481048459102e-02 -1.4934203335790925e-02 1.0479626799895708e-02  4.7934963548178271e-02 -1.5164418664559701e-02 1.0326693368781238e-02  4.8181568015268711e-02 -1.5237351097035601e-02 1.0279492997047899e-02  4.7295487568222744e-02 -1.5022691962034233e-02 1.0431510642677737e-02  4.7302857963524181e-02 -1.4977710547943859e-02 9.8143788192451009e-03  4.8429922491184427e-02 -1.5357266672127379e-02 1.0261942671307330e-02  4.7543491496511138e-02 -1.5153423846722976e-02 1.0414947710271211e-02  4.7531030978768256e-02 -1.5097551752382567e-02 9.8336001354660339e-03  4.8676423989388512e-02 -1.5515247405689903e-02 1.0262359219361838e-02  4.7792579019122906e-02 -1.5319047719167230e-02 1.0416719235903833e-02  4.7762664572786960e-02 -1.5259526361599159e-02 9.8687522026358835e-03  4.8921034457589725e-02 -1.5707755659249784e-02 1.0273821780995005e-02  4.8039925180203683e-02 -1.5516554226712109e-02 1.0428426713868903e-02  4.7992490229735230e-02 -1.5458164463424929e-02 9.9135643040269526e-03  4.9160613892881379e-02 -1.5936965316475083e-02 1.0292674682261912e-02  4.8279846777736543e-02 -1.5745515362734521e-02 1.0445309900069699e-02  4.8210515438644318e-02 -1.5690339403510667e-02 9.9626587372350344e-03  4.9387981450397044e-02 -1.6206078838224860e-02 1.0313035528704991e-02  4.8501674347628268e-02 -1.6007866085489063e-02 1.0466989207966383e-02  4.8400155207924338e-02 -1.5958590347395434e-02 1.0007016681246267e-02  4.8248295263536682e-02 -1.5247489219259861e-02 9.5419358371818946e-03  4.8465097809823443e-02 -1.5399936570404320e-02 9.5986444515186349e-03  4.8679848018272971e-02 -1.5590512306223221e-02 9.6622112822278006e-03  4.8884450556859492e-02 -1.5817559658490465e-02 9.7303503937522066e-03  4.9064587006980596e-02 -1.6102312662131496e-02 9.8063431899504967e-03  4.1358967502883918e-02 -1.3791513991462563e-02 1.0531448274269923e-02  4.1377384844518396e-02 -1.3707655344166804e-02 1.1062605623260795e-02  4.2144353911326968e-02 -1.3806376333202100e-02 1.0781914088045874e-02  4.2275132704829563e-02 -1.3918346009084138e-02 1.0749928388082940e-02  4.1477235456633003e-02 -1.3842825791662915e-02 1.1036273604937983e-02  4.1430439292738430e-02 -1.3908010387545045e-02 1.0524947284943791e-02  4.2419094548103123e-02 -1.4062305948746976e-02 1.0756270330582096e-02  4.1593347587444235e-02 -1.3999004656947662e-02 1.1046215914581195e-02  4.1522637754631116e-02 -1.4055707641178718e-02 1.0552892353788302e-02  4.2574495165675047e-02 -1.4235837553282461e-02 1.0787088439764406e-02  4.1722620160388864e-02 -1.4179403671980529e-02 1.1080186812249955e-02  4.1629920911874438e-02 -1.4233423798397633e-02 1.0603441663267311e-02  4.2742721528687792e-02 -1.4439719008359915e-02 1.0835264190408311e-02  4.1861298606741079e-02 -1.4387706977458501e-02 1.1129202857667156e-02  4.1746865459996521e-02 -1.4443338005969789e-02 1.0669720786285909e-02  4.2925935920684360e-02 -1.4680061917209795e-02 1.0898102032781503e-02  4.2005850143564255e-02 -1.4630112579027106e-02 1.1186674536807512e-02  4.1868096900771104e-02 -1.4691050719263027e-02 1.0747462387433066e-02  4.3115638897201602e-02 -1.4968634396802778e-02 1.0970649254493318e-02  4.2157190695292925e-02 -1.4917616382606693e-02 1.1248494393092875e-02  4.1993221412261569e-02 -1.4979285584378436e-02 1.0829072197487244e-02  4.6207556680143480e-02 -1.5647598414960266e-02 1.4312222927448780e-02  4.6557774957268351e-02 -1.5858075329825090e-02 1.4176433355460627e-02  4.6892963837753356e-02 -1.6065534455405137e-02 1.4055979650927296e-02  4.7218133724268453e-02 -1.6272654268848996e-02 1.3945562432509710e-02  4.7537489983813033e-02 -1.6482403863670350e-02 1.3838614342460084e-02  4.7854610360733629e-02 -1.6697631541118561e-02 1.3728284374177878e-02  4.8171989774884502e-02 -1.6920940724802616e-02 1.3607446878959246e-02  4.5460810351821077e-02 -1.4806374615455083e-02 8.4465098414965179e-03  4.5590973012290377e-02 -1.4879587917458010e-02 8.5779389520887119e-03  4.5729891499646916e-02 -1.5007679691055417e-02 8.7057373538147170e-03  4.5879062580779693e-02 -1.5177768098798493e-02 8.8354153911884455e-03  4.6040479625859693e-02 -1.5381054836092737e-02 8.9687665128000294e-03  4.6221769535076992e-02 -1.5610684564482171e-02 9.1067267768436024e-03  4.6392678226019016e-02 -1.5867537542760202e-02 9.2645757474753218e-03  4.2091955814612510e-02 -1.3929534534904109e-02 1.0012472425726612e-02  4.2186257671850934e-02 -1.4016834317043292e-02 1.0018440796014612e-02  4.2299778555954695e-02 -1.4147378551674791e-02 1.0053514102901064e-02  4.2428156166801720e-02 -1.4314654026639848e-02 1.0109795004937513e-02  4.2570165488982389e-02 -1.4516705779373570e-02 1.0183676882933037e-02  4.2724648105497913e-02 -1.4757968001081190e-02 1.0274988417056643e-02  4.2873489014784980e-02 -1.5045608869075421e-02 1.0381302740449410e-02  4.6497341875934309e-02 -1.4836882104216798e-02 1.0940874076538444e-02  4.6753183728233561e-02 -1.4950353801106972e-02 1.0864748874924914e-02  4.7014949914681546e-02 -1.5094153642024774e-02 1.0825294963489909e-02  4.7278163727314734e-02 -1.5267208350821789e-02 1.0806404386385970e-02  4.7540351461792724e-02 -1.5467810699904700e-02 1.0798559058700481e-02  4.7795404765568344e-02 -1.5695241393366106e-02 1.0794817777138675e-02  4.8025998861553197e-02 -1.5955346991679938e-02 1.0791408397066190e-02  4.6348955676074610e-02 -1.5033722968995560e-02 1.2140273766165846e-02  4.6649914646156351e-02 -1.5194963670644789e-02 1.2026116296955654e-02  4.6938759842511647e-02 -1.5369425903049965e-02 1.1945156385605888e-02  4.7221154642492512e-02 -1.5559489834120832e-02 1.1883580808806976e-02  4.7501063641216638e-02 -1.5768095301634075e-02 1.1831523820433027e-02  4.7780891292222800e-02 -1.5997965142564543e-02 1.1780384007403008e-02  4.8060256228760249e-02 -1.6252040254833611e-02 1.1723667560629869e-02  4.1500841147074030e-02 -1.4204314522252933e-02 1.4373302366747441e-02  4.0690303032610398e-02 -1.3963255131225632e-02 1.3988102556419945e-02  4.1257501576421940e-02 -1.4113271793728453e-02 1.3645914864695886e-02  4.0999702605785220e-02 -1.3920091039315614e-02 1.3653371339821356e-02  4.0964707916151852e-02 -1.4155950235069079e-02 1.4010431865500278e-02  4.1812753221742438e-02 -1.4400722216271125e-02 1.4379956502148156e-02  4.1518899968099314e-02 -1.4311318356373970e-02 1.3649396013382994e-02  4.1246183249823536e-02 -1.4354291554254855e-02 1.4037279678019144e-02  4.2129675472304742e-02 -1.4600513382339591e-02 1.4390531961222254e-02  4.1786758113859970e-02 -1.4516621337929846e-02 1.3658114605917511e-02  4.1539411249618068e-02 -1.4557995158546338e-02 1.4063850826988611e-02  4.2455834489156123e-02 -1.4803673331642848e-02 1.4399567263219146e-02  4.2064375899765229e-02 -1.4730192723017807e-02 1.3666074593254161e-02  4.1851103593272723e-02 -1.4765678140894401e-02 1.4085411932535995e-02  4.2356069507738320e-02 -1.4949871348029095e-02 1.3666244027832284e-02  4.6670082027523076e-02 -1.6072840726664987e-02 1.5007081722116598e-02  4.7036606215977286e-02 -1.6293993914625850e-02 1.4873913612700834e-02  4.7388323053916215e-02 -1.6508611553615243e-02 1.4753572708065810e-02  4.7729598172817835e-02 -1.6718475387271718e-02 1.4640405556526043e-02  4.8064830470738742e-02 -1.6925898558407881e-02 1.4528831658649691e-02  4.8398202980382318e-02 -1.7133088320489664e-02 1.4413246466342780e-02  4.8733930530860947e-02 -1.7343031342343600e-02 1.4288393539172689e-02  4.5404718190482023e-02 -1.4618516991224455e-02 9.2009786544789088e-03  4.5569813871905569e-02 -1.4691599609168495e-02 9.2661605722191599e-03  4.5749616208570355e-02 -1.4816918642060901e-02 9.3441105515575627e-03  4.5939592910452694e-02 -1.4984820858129534e-02 9.4311975857794637e-03  4.6140362412675100e-02 -1.5186592795342700e-02 9.5256434970584607e-03  4.6351500748678984e-02 -1.5412891528394063e-02 9.6266057380573825e-03  4.6551240074998466e-02 -1.5662811718230665e-02 9.7498662151933990e-03  4.1715465113645919e-02 -1.3715709473634419e-02 1.1496293746892757e-02  4.1856770042730217e-02 -1.3861492762325742e-02 1.1450061067526352e-02  4.2009953881580589e-02 -1.4024501629734461e-02 1.1439178573987430e-02  4.2173701049645212e-02 -1.4208202041250034e-02 1.1451941496619990e-02  4.2346895988448728e-02 -1.4417273954615511e-02 1.1479646864205533e-02  4.2528570503497357e-02 -1.4659141377775254e-02 1.1514418392975205e-02  4.2718231895270957e-02 -1.4942973874353144e-02 1.1548800258948356e-02  4.7309134775251144e-02 -1.5098279918196062e-02 1.1089908359006613e-02  4.7583919084716597e-02 -1.5209324057292063e-02 1.1000549693432841e-02  4.7852609473351404e-02 -1.5348545708902355e-02 1.0944930270026158e-02  4.8117453534510170e-02 -1.5515890525010559e-02 1.0910606877341140e-02  4.8380106400374184e-02 -1.5710383529805250e-02 1.0887801577192041e-02  4.8640728636274021e-02 -1.5933870814029912e-02 1.0870225447396787e-02  4.8898113772128521e-02 -1.6194617183866573e-02 1.0857054656303509e-02  4.3574859370408697e-02 -1.4185615720507971e-02 9.7606374447401119e-03  4.3745644067