<?xml version="1.0"?>
<VTKFile type="UnstructuredGrid"  version="0.1"  >
<UnstructuredGrid>
<Piece  NumberOfPoints="942" NumberOfCells="4040">
<Points>
<DataArray  type="Float64"  NumberOfComponents="3"  format="ascii">9.094173925064778 3.680739223457439 3.609707729621877  8.974074714784079 3.63017503845702 3.693390042021607  9.084317025112236 3.627439826924734 3.70405588382302  9.082913863021151 3.684079227111119 3.739611611864856  8.972825159620786 3.68777162096141 3.727149345104348  9.092603799532878 3.738575932422564 3.63876107865531  9.081642680694999 3.740499543181694 3.775286901079671  8.971713691786661 3.745186745264281 3.761085090129324  9.091146337311054 3.796295879651527 3.668001403069121  9.080422894800144 3.796824793264273 3.811004212718834  8.970675018714399 3.80252304475256 3.795091095115665  9.089746064283009 3.853976273407076 3.697324202202906  9.079221103720979 3.853114763700719 3.846709808996577  8.969652156462031 3.859843879510161 3.82909398321589  9.088365329535279 3.91166346862527 3.726649839389772  9.078006095967552 3.909389081764435 3.882357467883452  8.968600608306199 3.917172031237474 3.863032797915008  9.086977039454791 3.969380426832473 3.755913006459457  9.076726087554711 3.965636916718212 3.91788752958675  8.967493775225321 3.9745230544923 3.896843728713279  9.08553622675373 4.027128515339742 3.785047074177867  10.10045521657062 3.293531735918288 3.825672093657032  9.999230122857304 3.338935986229512 3.810729469843685  9.994608010491566 3.225259736244798 3.855491712405533  10.00328720448549 3.243528652932193 3.919760468420326  10.00404089133932 3.364408668619846 3.872219962209264  10.1040087490871 3.313722129144391 3.889571991261783  10.01176718085974 3.261617343990179 3.984158431946041  10.00867100552684 3.389730705202493 3.933875881713112  10.10739282852106 3.333746126972152 3.953620347215611  10.02017767936987 3.279636607614367 4.048637589784755  10.01324026731882 3.415010847291644 3.995624725730937  10.11072689706094 3.353724727905309 4.017766154144434  10.02860884934516 3.297634790674067 4.113166503951819  10.01784198890073 3.440294933427788 4.057427395824183  10.11408566871473 3.37371346543202 4.081993663837004  10.03714507755204 3.315637275164977 4.177727736049881  10.02256601064767 3.465601877383448 4.119267409944608  10.11754272014504 3.393758414603044 4.146333550073638  10.04591182118902 3.333713936424501 4.24230775208205  10.0274831095871 3.491010323740006 4.181202787987784  10.12117405315929 3.413916307591572 4.210831668926923  8.990904526618728 3.703110878801826 3.556865444742028  8.988110986449346 3.761779809917843 3.581597130188125  8.985464613763671 3.820398943615236 3.60656360458235  8.982893111459145 3.879042815212806 3.631639139406527  8.980335530153495 3.937751713280983 3.656723440676499  8.977741085898524 3.99654388774092 3.681728322870159  8.975082618645859 4.055403828305302 3.706572553970174  9.464834165975125 3.509678280676943 3.806891115006415  9.358863483544365 3.563401046119201 3.774094414457075  9.383337203384682 3.455671376469039 3.865291915175391  9.390671115387587 3.496337577912266 3.921325552784612  9.362970254109488 3.612168951177063 3.821375905646348  9.472562424325815 3.553888864071617 3.85849134305187  9.397899498950853 3.536825924924611 3.977268278766124  9.367026670356442 3.660757343158181 3.868653918585233  9.480142547329347 3.597923338566543 3.910057254753796  9.405082008373627 3.577188014290841 4.03314665856418  9.371072289775951 3.709224792785952 3.91592027315982  9.487672774226297 3.641848413922416 3.961600193735869  9.412276640051466 3.617451994077123 4.088971382743197  9.375141243565119 3.757615072587064 3.963155172242622  9.495224949753641 3.6856978805827 4.013112212649236  9.419517305927577 3.657626029963379 4.144739538690294  9.379253553729855 3.805950256498333 4.010336192989061  9.502851285998982 3.729479310675794 4.064569315370041  9.426835404034028 3.697722128971895 4.20044581380513  9.383403052772875 3.854240157047294 4.057443616152565  9.510580408649112 3.773175880561477 4.115928282086077  9.974003808340562 3.745374381560763 3.484492712057105  9.870588387408359 3.772979871047733 3.430968638913205  9.899624348631358 3.687139509022197 3.560467769255372  9.900811071706725 3.735566552362967 3.600890466830168  9.869885001282148 3.824515618254137 3.463138968119012  9.97111120171621 3.79538168545173 3.520683398288771  9.968163673639406 3.845443604410274 3.556980099506475  9.869060700082711 3.876085582577085 3.495427939773633  9.901858586801948 3.784031748188293 3.641450137532036  9.965199186244559 3.895612952798092 3.593353992496278  9.868194229018371 3.927725299647491 3.527778089028659  9.902863257747947 3.832556365799246 3.682075511323692  9.962261633105808 3.945898314508669 3.629790096547046  9.867346305277 3.979452082024074 3.560163398730677  9.903898277522309 3.881166733582289 3.722756957264811  9.866572959134942 4.03126223374729 3.592545194557926  9.959378186058785 3.996332344890383 3.666288951647141  9.905039185548706 3.929902823193613 3.763494101993638  9.956513789992952 4.046903888409117 3.702848324585357  9.865947179062083 4.083239706439532 3.624946527510053  9.906360294811888 3.978793930098474 3.804314641527654  9.893096170225924 3.330077343770696 3.833672421559524  9.905774755572454 3.356428025994557 3.894331500217075  9.918170480203765 3.382655957839717 3.955147568735568  9.930475934842628 3.408841909501477 4.016034100584051  9.942793908941693 3.435019784023454 4.076962643743848  9.955226458833868 3.461218868689701 4.137926192204388  9.968088342313413 3.487478009283688 4.198904696657757  9.077373038589931 3.259683533263328 4.002848764150533  8.994165394544964 3.323734678912614 3.977723939903347  8.990427223869519 3.192860859896217 4.031499680485336  8.992289512074201 3.213051461251274 4.101154501737946  8.994454267453927 3.353867272433668 4.04314149033971  9.081953536894128 3.282808951975932 4.070966319241559  9.086513585021986 3.305865565842503 4.138857438150599  8.994825562452053 3.383866879397264 4.108315277989906  8.994183426202293 3.233190466056591 4.170577032774716  9.091065238851323 3.328821345575077 4.20658941318528  8.9952269766355 3.413743035862753 4.173344134930726  8.996090314952152 3.253255396903956 4.239864556233325  9.09561750526712 3.351668719377291 4.274226549158596  8.995632624533471 3.443509463730231 4.238277776942152  8.998004934222136 3.273229252043518 4.309051135439274  8.996022252196974 3.473168889477356 4.30314274820133  9.10017783189469 3.374402125127867 4.341777545327639  9.9834258898888 3.802470667077648 3.399939356932026  9.924849832001332 3.852351726832807 3.29873097493634  9.920847478743063 3.904862876036571 3.324489011224913  9.979351486450579 3.854241406162376 3.430777134960951  9.975241776634896 3.906100472069475 3.461715519217153  9.916775852425857 3.957481934883604 3.350373238881342  9.971113630218436 3.958067617405949 3.492731511247707  9.912678321498257 4.010208537383609 3.376327407583125  9.908590213271218 4.063063228105995 3.402318593916569  9.966993472375904 4.01017528451956 3.523808874884629  9.904551125480946 4.116087928922213 3.428320242429811  9.962903224445196 4.062447886839966 3.554930912612334  9.958847023064378 4.114891403561039 3.586076110819972  9.900608852439333 4.169316132047742 3.454311455223913  9.272520908050208 3.518843263545819 3.82520261269095  9.278074219012492 3.566475754665119 3.875052948658581  9.283561196056207 3.61386637660124 3.924828504348738  9.289028235579767 3.661120874674082 3.974561060107913  9.294510711627643 3.708276846263423 4.024246752149802  9.300036639506235 3.755350024525528 4.073874182388061  9.305645599577273 3.802349896655846 4.123404882238556  9.801698519400146 3.723177313385455 3.512497987427956  9.804820875557956 3.774301555747096 3.547995085874682  9.807749641573855 3.825440252256554 3.583598894733436  9.810618790455617 3.876622132672624 3.619263525264796  9.813507801617968 3.927872281850421 3.654966068741753  9.816493766579187 3.97921364958951 3.690688822389225  9.819755898539359 4.030667676719423 3.726391243057643  9.791135137901858 3.821135807546443 3.35161947175236  9.78983802244125 3.874925088357338 3.377254257075525  9.788412959272701 3.928769974263938 3.403006207594738  9.786946659089658 3.982708043184458 3.428830225738158  9.785491629325977 4.036762289231025 3.454680470187933  9.784104820020056 4.090948198975846 3.480520429282672  9.782897502988261 4.145269126892957 3.506296446892021  9.233965360429394 3.572637314865807 3.765476805860451  9.195838296986324 3.650316455348774 3.675377521503329  9.133383907309016 3.579745119989614 3.773140215836939  9.136487021019565 3.632764004115143 3.816127578043412  9.196559013857522 3.706291438226072 3.710888739205165  9.237490907474886 3.624283719558711 3.809556204475536  9.139581499895685 3.68552289263845 3.859151105527473  9.197330273778425 3.762096938196793 3.746514843105921  9.240997282639269 3.67568041595912 3.853635364334961  9.142699777947694 3.738150464828676 3.902178296316514  9.19813565951234 3.817820662984625 3.782188415606567  9.244503261635865 3.72692830822602 3.89769274623715  9.145837974173544 3.79070531938819 3.94517930802352  9.198959448946791 3.873512840735267 3.81785176459329  9.24802516526554 3.778087031465653 3.941714976214683  9.149005350848785 3.843214545375501 3.988125548331381  9.19978838613032 3.929200288768279 3.85346025461878  9.251573414213592 3.829178440068232 3.985678972402182  9.152233442197248 3.895686862251578 4.030984974215958  9.200626110189601 3.984897799965771 3.888973775359343  9.255179188711248 3.880217794251565 4.029556312629988  9.003056694475823 3.569947517023636 3.791386873810843  9.002897726068676 3.623963893861899 3.83434019099101  9.002856326752307 3.677717104233612 3.877356653313903  9.002868598650419 3.731352095863636 3.920376933220657  9.002896027755726 3.784931060216428 3.963373292686684  9.00290687029646 3.838477731036436 4.006313998742745  9.002877628025686 3.891997510826955 4.049165336580164  8.882681370729099 3.616719741218734 3.83968883631
[...]
<PointData  Vectors="f_16"> 
<DataArray  type="Float64"  Name="f_16"  NumberOfComponents="3" format="ascii">2.0984597198674886e-02 -1.1035215798388204e-02 7.2518847472882227e-03  2.2410778090256336e-02 -1.0891292842551175e-02 8.3178996124143954e-03  2.1417274286335500e-02 -1.0063918033163628e-02 8.3107797514034541e-03  2.1111149000983379e-02 -9.3432094406426958e-03 7.8114543658612421e-03  2.2077563960799650e-02 -1.0209278282050007e-02 7.7535630839068699e-03  2.0620671306660218e-02 -1.0426085888095883e-02 6.6651966091537587e-03  2.0871250005332277e-02 -8.6854262659338873e-03 7.3476504480282498e-03  2.1818522892014264e-02 -9.5696470339280450e-03 7.2546743513286147e-03  2.0317501778015057e-02 -9.8458876231273876e-03 6.1399515286008777e-03  2.0656328995496374e-02 -8.0561979906743717e-03 6.8949699465724471e-03  2.1592521656900891e-02 -8.9443289527353607e-03 6.7778611112644426e-03  2.0039343506768108e-02 -9.2732208133959083e-03 5.6370570044809026e-03  2.0442335799503730e-02 -7.4364847917688685e-03 6.4321344951910851e-03  2.1368879306807167e-02 -8.3171723485733137e-03 6.2951680156338218e-03  1.9762413606096360e-02 -8.6960149007305754e-03 5.1289049016911637e-03  2.0209213478562190e-02 -6.8188033270549561e-03 5.9424148906982817e-03  2.1124078560079324e-02 -7.6820641295505636e-03 5.7860411553045735e-03  1.9468687295556720e-02 -8.1094670501616409e-03 4.5937372117777139e-03  1.9932407816872322e-02 -6.2028262959014143e-03 5.4166759423250107e-03  2.0845535355093734e-02 -7.0291701675338786e-03 5.2410828201508433e-03  1.9136719761121346e-02 -7.5191915466663794e-03 4.0110719091792178e-03  1.2022350771806221e-02 -4.1244336694057256e-03 7.0190274797217707e-03  1.2693939505378667e-02 -4.6851162728863988e-03 7.2666599764516435e-03  1.2811395248650726e-02 -4.5955587301374666e-03 8.0833276811243318e-03  1.3180274405789125e-02 -4.2002454844144287e-03 8.2714994938850820e-03  1.2913048346767431e-02 -4.2411704017949990e-03 7.4161474890460672e-03  1.2237561404662620e-02 -3.7216099188908240e-03 7.2452518897733612e-03  1.3555550948492966e-02 -3.7575743957078294e-03 8.4762477045025215e-03  1.3178197371737140e-02 -3.7344189861859703e-03 7.5702893159486240e-03  1.2492292968129958e-02 -3.2730374053193370e-03 7.4646395881549947e-03  1.3904872918154995e-02 -3.3087028420115752e-03 8.6954242291352006e-03  1.3424004318440146e-02 -3.2246649156606627e-03 7.7384836821802108e-03  1.2741929464182405e-02 -2.8220558361755224e-03 7.7029662864511236e-03  1.4253192024945262e-02 -2.8528282802243090e-03 8.9278075707693513e-03  1.3667728397975105e-02 -2.7079789052019076e-03 7.9162310598247885e-03  1.2990152118386063e-02 -2.3606974921520979e-03 7.9656943659413421e-03  1.4636739884644560e-02 -2.3826458389933913e-03 9.1840068227531362e-03  1.3933176735311829e-02 -2.1763094346331168e-03 8.1111157245081812e-03  1.3242603952175759e-02 -1.8768562604471370e-03 8.2765727867822846e-03  1.5107188877221098e-02 -1.8763986657165481e-03 9.5038916095693954e-03  1.4239679297850919e-02 -1.6002467208875804e-03 8.3968681133801109e-03  1.3500718368110183e-02 -1.3808812568540470e-03 8.6181717433412418e-03  2.1696382290618373e-02 -1.2331615353806634e-02 6.8247754422798915e-03  2.1325901061062528e-02 -1.1842032326695956e-02 6.1833969627172443e-03  2.1019006046429110e-02 -1.1344890204590579e-02 5.6164702173250852e-03  2.0739652284080250e-02 -1.0825403302402102e-02 5.0817599345516556e-03  2.0458673073983521e-02 -1.0276698117670595e-02 4.5452466999911954e-03  2.0150860690975173e-02 -9.6973736087484115e-03 3.9763131722102101e-03  1.9800164118491271e-02 -9.0977035867177564e-03 3.3483399224255505e-03  1.7675182733350520e-02 -7.0165268220940763e-03 9.1158995313564486e-03  1.8745690940072321e-02 -7.7624775820431180e-03 8.8223168129427602e-03  1.8866011314362635e-02 -7.0388122146075064e-03 1.0210272131891164e-02  1.9014879711461683e-02 -6.2016802876961388e-03 1.0155472851481908e-02  1.8713870781154975e-02 -6.9326454006383587e-03 8.5898196479785964e-03  1.7797920874836060e-02 -6.1983276765144443e-03 8.9854006529245314e-03  1.9129725596742746e-02 -5.4457310333663363e-03 1.0054122931178536e-02  1.8676777268982103e-02 -6.1864324579746187e-03 8.3337783113697304e-03  1.7874124118483044e-02 -5.4538459506077025e-03 8.8224357812598433e-03  1.9226952519243005e-02 -4.7409634001229547e-03 9.9115191774394196e-03  1.8635624766919642e-02 -5.4888395520721238e-03 8.0585791510220904e-03  1.7929419098575206e-02 -4.7527356033960841e-03 8.6332069946009424e-03  1.9321794848573114e-02 -4.0713347991819865e-03 9.7292676929821194e-03  1.8593604331897180e-02 -4.8216126641406308e-03 7.7575434853583772e-03  1.7984938031710501e-02 -4.0799501892968314e-03 8.4163235149781902e-03  1.9424674972542039e-02 -3.4279102659024452e-03 9.5051079791725630e-03  1.8551169868432377e-02 -4.1761461024415409e-03 7.4220571244086545e-03  1.8055630487510251e-02 -3.4303526359430823e-03 8.1652699361571164e-03  1.9538488909566422e-02 -2.8034081910318256e-03 9.2404879169907216e-03  1.8501316598969305e-02 -3.5501446532110398e-03 7.0411056511650158e-03  1.8146581998085175e-02 -2.8072711112668669e-03 7.8669908415746441e-03  1.2829959442105502e-02 -6.4396004153478778e-03 3.8484904894590197e-03  1.3618907904754025e-02 -7.4988798577988380e-03 3.7102690514104622e-03  1.3287688655349269e-02 -6.4687955527282463e-03 4.6760049765103328e-03  1.3103977599108968e-02 -5.9350052162892662e-03 4.4781422060056770e-03  1.3296618649636190e-02 -7.0346268622322513e-03 3.4229509712997742e-03  1.2520185400022822e-02 -5.9824149051008633e-03 3.6272804591269739e-03  1.2208662943051054e-02 -5.5077881349228971e-03 3.4287311326728766e-03  1.2949741570586539e-02 -6.5543159697220681e-03 3.1674687686449078e-03  1.2903432418337135e-02 -5.3793019341093276e-03 4.2932893061124900e-03  1.1889391183774609e-02 -5.0093851313355109e-03 3.2432926455339024e-03  1.2585824229417531e-02 -6.0595217029445298e-03 2.9225894280661647e-03  1.2681346314784498e-02 -4.8074608615262526e-03 4.1189165903166161e-03  1.1567614754114381e-02 -4.4811206451791088e-03 3.0634756761956502e-03  1.2219513135840809e-02 -5.5453564158103709e-03 2.6769511854370901e-03  1.2457518483736755e-02 -4.2136445991914628e-03 3.9486532861452211e-03  1.1866502582538137e-02 -5.0038167555581286e-03 2.4247520152802611e-03  1.1246806003419799e-02 -3.9168062931360511e-03 2.8861330964028401e-03  1.2252579329976865e-02 -3.5894038049509385e-03 3.7796096210213322e-03  1.0918054327775250e-02 -3.3077832447454950e-03 2.7099096798646701e-03  1.1533316684631627e-02 -4.3635492533503576e-03 2.1844044176659075e-03  1.2087408860398502e-02 -2.9282192059496654e-03 3.6194226954477469e-03  1.3488265076550116e-02 -5.0577080010272713e-03 8.0615134714586267e-03  1.3813729396704484e-02 -4.5703206273545391e-03 8.1564780717211724e-03  1.4095169928904723e-02 -4.0213754439002687e-03 8.2494186578362071e-03  1.4328858381110369e-02 -3.4685693042721638e-03 8.3523625953215597e-03  1.4556387002029820e-02 -2.9111085016009191e-03 8.4634200679300341e-03  1.4828141758269794e-02 -2.3400719083865587e-03 8.5934717493736778e-03  1.5284683547103762e-02 -1.7419927486069069e-03 8.7444885094752622e-03  2.3435335997711325e-02 -7.8137217183018148e-03 1.3246207934253511e-02  2.4124886319070175e-02 -8.2069972081351625e-03 1.2599248009256329e-02  2.4765881063368501e-02 -8.1105549399852206e-03 1.3892262009679033e-02  2.4740313245023418e-02 -7.4322959213832009e-03 1.4209479425812060e-02  2.4032379393670977e-02 -7.4206465236873161e-03 1.2771903502778598e-02  2.3483986989733894e-02 -7.0677395012971808e-03 1.3515137303258847e-02  2.3553691791602598e-02 -6.3925820249195646e-03 1.3669075800097855e-02  2.4018348527950557e-02 -6.7104921888775397e-03 1.2849552320284023e-02  2.4766989440422375e-02 -6.8201120340437319e-03 1.4403620078165636e-02  2.3632403677877896e-02 -5.7646670045928411e-03 1.3744827541027401e-02  2.4033247260638275e-02 -6.0522922068933565e-03 1.2862635047523935e-02  2.4814968969625210e-02 -6.2427781459193791e-03 1.4518574482613839e-02  2.3711130184467147e-02 -5.1674541576489834e-03 1.3758691042919791e-02  2.4047201854735620e-02 -5.4273203434286174e-03 1.2824763608809134e-02  2.4861691505045389e-02 -5.6899696294142694e-03 1.4570964439740082e-02  2.4037545010928439e-02 -4.8259371185703694e-03 1.2737915630481817e-02  2.3783669844259066e-02 -4.5895399915623939e-03 1.3710830897442941e-02  1.2838652111970657e-02 -6.8352302084418431e-03 3.1915834446586597e-03  1.3372742425424518e-02 -7.8650019125324280e-03 2.6111722671755488e-03  1.2912457612882136e-02 -7.5344424613881470e-03 2.3192202413793604e-03  1.2434293679495849e-02 -6.4451868182874121e-03 2.9374279207229404e-03  1.2028759859474183e-02 -6.0366736290468235e-03 2.7123398674626271e-03  1.2437261676133900e-02 -7.1826300173357602e-03 2.0653663800027770e-03  1.1616218523160440e-02 -5.6011492608491892e-03 2.5014608313462176e-03  1.1952212166495470e-02 -6.8024639898909556e-03 1.8310296321937182e-03  1.1462299648842798e-02 -6.3867635011851517e-03 1.6002902669154642e-03  1.1199448810439145e-02 -5.1326901669780864e-03 2.2949443480897807e-03  1.0975554257515032e-02 -5.9261862319761301e-03 1.3587180328335383e-03  1.0781102152122531e-02 -4.6216664700241038e-03 2.0856007106348265e-03  1.0356066517470489e-02 -4.0655446481984749e-03 1.8585492457573072e-03  1.0502927280652186e-02 -5.4077118314080222e-03 1.0911405299427396e-03  1.9895561395771092e-02 -7.8361855497016582e-03 9.7489078569121500e-03  1.9870533777685884e-02 -6.9792259489246085e-03 9.5437906080223945e-03  1.9830262462697281e-02 -6.2119690287133419e-03 9.3157597618495278e-03  1.9786307098140665e-02 -5.4996920502760876e-03 9.0581562416653574e-03  1.9742774843334344e-02 -4.8233643064439728e-03 8.7688886064847919e-03  1.9703999395506044e-02 -4.1736480035969130e-03 8.4444496329140195e-03  1.9680740460905941e-02 -3.5433212370574963e-03 8.0818583775590491e-03  1.4043148701614418e-02 -7.3795903073535550e-03 4.5497530816518165e-03  1.3832536299352088e-02 -6.8263369602012593e-03 4.2765889112461536e-03  1.3570899702191878e-02 -6.2688254400895833e-03 4.0175050301850344e-03  1.3283196238725328e-02 -5.7037925058297228e-03 3.7653294953856786e-03  1.2992487804688519e-02 -5.1236890591149168e-03 3.5131919483189296e-03  1.2725270025612455e-02 -4.5194248162189043e-03 3.2556485395646676e-03  1.2526137470286039e-02 -3.8702373250158752e-03 2.9949970068451721e-03  1.4272760654233219e-02 -8.5688410032163584e-03 3.2167603364700826e-03  1.3891084296949798e-02 -8.1485207693119139e-03 2.8829868179456367e-03  1.3470572271822145e-02 -7.7284409046838726e-03 2.5747664871364501e-03  1.3033392953093382e-02 -7.2886630333949742e-03 2.2808487480002501e-03  1.2591375877601917e-02 -6.8193362695232766e-03 1.9861092359816103e-03  1.2158966033008149e-02 -6.3145394311040744e-03 1.6753344451162320e-03  1.1764348898487723e-02 -5.7748600065072771e-03 1.3376212486557449e-03  2.0087623772947781e-02 -8.5723502508527546e-03 8.9997189818211837e-03  2.0159610312584446e-02 -9.6274340644183238e-03 7.7801069672598878e-03  2.1133448165904529e-02 -9.0516637650015132e-03 9.1173473147624657e-03  2.0944742285062493e-02 -8.2143625271888232e-03 8.7486561315208017e-03  1.9875240446789063e-02 -8.8960071303745246e-03 7.3041022772846525e-03  1.9946584877510786e-02 -7.7418878203811018e-03 8.6643137723987698e-03  2.0762526660434814e-02 -7.4733453121393935e-03 8.3883937872519625e-03  1.9629344443517764e-02 -8.2306837964155211e-03 6.8579435560767628e-03  1.9813980928420998e-02 -6.9911870755875183e-03 8.3432336852501260e-03  2.0592688759090982e-02 -6.7788401739547824e-03 8.0227298965442773e-03  1.9400425904436670e-02 -7.5941705383129939e-03 6.4186710384418607e-03  1.9686553669471012e-02 -6.2937769263739507e-03 8.0082997426252495e-03  2.0426667632173927e-02 -6.1087630248088881e-03 7.6376894717190410e-03  1.9171990642609934e-02 -6.9710774077251939e-03 5.9667000902357999e-03  1.9560251248213582e-02 -5.6290161297903483e-03 7.6498375095564522e-03  2.0259905793791756e-02 -5.4541128803626297e-03 7.2213376424670123e-03  1.8931161185078024e-02 -6.3541004670789204e-03 5.4852991346619109e-03  1.9432978074398293e-02 -4.9866836905903301e-03 7.2598838172734190e-03  2.0102463118395593e-02 -4.8163458101431718e-03 6.7615579285941925e-03  1.8671402127806436e-02 -5.7433335050624682e-03 4.9590672284215492e-03  1.9312092038738116e-02 -4.3493955165155411e-03 6.8407609515567496e-03  2.2568377434342288e-02 -9.6171756448375657e-03 9.4099725160513153e-03  2.2309424104316598e-02 -8.8099264936720850e-03 9.0144847828452501e-03  2.2112578167953999e-02 -8.0875677182378619e-03 8.6382203636125900e-03  2.1944135336847335e-02 -7.4019343645634617e-03 8.2618784715266340e-03  2.1777292300339000e-02 -6.7307387783667270e-03 7.8700513125542684e-03  2.1591920871210434e-02 -6.0663563464428425e-03 7.4484845627520698e-03  2.1376011859528758e-02 -5.4107032287497494e-03 6.9816710805107032e-03  2.3441015429343237e-02 -9.4670981797998523e-03 9.1096647691624715e-03  2.3263116889017891e-02 -8.7459818570171811e-03 8.7473193638872779e-03  2.3126614374780256e-02 -8.0495723362553027e-03 8.3959481127982155e-03  2.2990924259057778e-02 -7.3563165145291180e-03 8.0355863563206179e-03  2.2822027192654030e-02 -6.6578349828698771e-03 7.6492126019481153e-03  1.8153904243951899e-02 -1.0072041642178054e-02 5.8416872076392148e-03  1.9115106466587213e-02 -1.1158292635811981e-02 5.7449879759450401e-03  1.8977215827573151e-02 -9.5774171399283566e-03 7.0038367957492367e-03  1.8684624358255932e-02 -8.9065777939569719e-03 6.4982099310524396e-03  1.8719807355894916e-02 -1.0654776348995622e-02 5.1812660957180441e-03  1.7812479793930840e-02 -9.4984698223166165e-03 5.3303756982532183e-03  1.8420063421553206e-02 -8.2901277855833445e-03 6.0326225086304733e-03  1.8362421248663316e-02 -1.0162598945502395e-02 4.6738477293523633e-03  1.7490163521602334e-02 -8.9583813525371883e-03 4.8601660350595247e-03  1.8164559917589893e-02 -7.7002338437284126e-03 5.5772361295745787e-03  1.8018843412905401e-02 -9.6681586030957830e-03 4.1882863401706888e-03  1.7173376985458368e-02 -8.4278137727333193e-03 4.4048868139369788e-03  1.7907545358208245e-02 -7.1210802019401557e-03 5.1110070859131124e-03  1.7672936531486109e-02 -9.1631104856519791e-03 3.6974231706697939e-03  1.6853635269920439e-02 -7.8955221343605247e-03 3.9421736241463503e-03  1.7641363283631358e-02 -6.5464760277971507e-03 4.6160187549001514e-03  1.7311325352466864e-02 -8.6447617632606690e-03 3.1780833243996711e-03  1.6524751695017520e-02 -7.3581233013135594e-03 3.4529307854957773e-03  1.7362411204497930e-02 -5.9783822587051588e-03 4.0776446170149548e-03  1.6918908617878415e-02 -8.1203319133693712e-03 2.6095459743333440e-03  1.6182809258698139e-02 -6.8283791558824830e-03 2.9169663830493952e-03  1.7543154066604730e-02 -8.9639467211126197e-03 6.4339123329325495e-03  1.8156403292408370e-02 -8.3453924568734992e-03 7.5435116440459747e-03  1.7989801540741424e-02 -7.5924703306625265e-03 7.1700980859539017e-03  1.7301156638517265e-02 -8.3002425052793715e-03 5.9892313112977968e-03  1.7062882650241796e-02 -7.6909130986140993e-03 5.5722193812405511e-03  1.7839160345725875e-02 -6.9150400346819681e-03 6.8010138839320602e-03  1.6823732630611009e-02 -7.1075178964287783e-03 5.1608414904552721e-03  1.7686287437559262e-02 -6.2740633719356896e-03 6.4259637214547326e-03  1.6582472702033783e-02 -6.5344758121147336e-03 4.7387299475574081e-03  1.7531643133259046e-02 -5.6532863377608588e-03 6.0339855401488444e-03  1.6340331438050471e-02 -5.9670711393752683e-03 4.2906949204484035e-03  1.7374728057092666e-02 -5.0472699165865524e-03 5.6148518950941773e-03  1.6096479844827399e-02 -5.4002796112984702e-03 3.8106488548740945e-03  1.7208506762590513e-02 -4.4546785385403357e-03 5.1586093399731379e-03  2.2883001823459009e-02 -1.0233632639448141e-02 7.3574608055909435e-03  2.2704107921396165e-02 -9.6081415028967301e-03 6.8816368910414967e-03  2.2527968080005911e-02 -8.9616610090120646e-03 6.4058403357458550e-03  2.2323166191153244e-02 -8.2880160606968664e-03 5.9024914187327674e-03  1.1227426964249748e-02 -4.7769687184659624e-03 3.3256803881153464e-03  1.1704149789649050e-02 -5.6434379516990506e-03 2.6873798725005451e-03  1.2122007515373481e-02 -5.8560887629206821e-03 3.3588716764215718e-03  1.1725474128374110e-02 -5.4462163471147278e-03 3.1660742341049013e-03  1.1194557307699722e-02 -5.3370310383916118e-03 2.4937246710775235e-03  1.0790326361049814e-02 -4.4014204991766216e-03 3.1778751593944466e-03  1.1323300689436933e-02 -5.0156229557705790e-03 2.9925427460168346e-03  1.0690987635468769e-02 -5.0049041667767306e-03 2.3232178224056191e-03  1.0354116885614533e-02 -4.0012069681207687e-03 3.0513855812338030e-03  1.0915591791881169e-02 -4.5576665774675488e-03 2.8330938500361678e-03  1.0186757599733117e-02 -4.6459624636727365e-03 2.1666885559100792e-03  9.9169241253017470e-03 -3.5760832287074743e-03 2.9389930389734343e-03  1.0502149187029868e-02 -4.0655472094086710e-03 2.6821612807203777e-03  9.6747271405349129e-03 -4.2567437803592801e-03 2.0185428279308466e-03  9.4717493019205335e-03 -3.1230512203353064e-03 2.8353037629821639e-03  1.0082369749764728e-02 -3.5323423099136017e-03 2.5342744994764363e-03  9.1490919761675026e-03 -3.8281327815993076e-03 1.8747145008891177e-03  9.0131732646671573e-03 -2.6332365301012478e-03 2.7386691518927900e-03  9.6706571414730547e-03 -2.9566361043597529e-03 2.3826254143131781e-03  8.6141466224354587e-03 -3.3432154628122673e-03 1.7308015211131447e-03  8.5548171860799285e-03 -2.0966998251935464e-03 2.6477574704646773e-03  1.9871079368117248e-02 -1.2431176154156022e-02 5.3916708360999873e-03  1.9908143593606223e-02 -1.0792159369594349e-02 6.6893898119838894e-03  1.9541653546068290e-02 -1.0221868857585931e-02 6.1111490754211135e-03  1.9447494914768347e-02 -1.2026095266068565e-02 4.8023144843495971e-03  1.9216123768819676e-02 -9.6725443322184940e-03 5.5880523739549421e-03  1.9068247552077790e-02 -1.1608782131878895e-02 4.2777267477675587e-03  1.8908918246270213e-02 -9.1325802130198721e-03 5.0862017192132500e-03  1.8705383378603207e-02 -1.1168369813272988e-02 3.7785202630565020e-03  1.8601210405181888e-02 -8.5910744394167276e-03 4.5795606428138212e-03  1.8337854611660966e-02 -1.0699316294311974e-02 3.2757759833426845e-03  1.8278233792715877e-02 -8.0438239378269015e-03 4.0475756007105727e-03  1.7947107062368552e-02 -1.0201153370077067e-02 2.7422795990983953e-03  1.7929880787819891e-02 -7.4877126525881993e-03 3.4744707616447411e-03  1.7517616770236936e-02 -9.6841344670910712e-03 2.1528224163967044e-03  1.2478372535814145e-02 -5.7740575959447501e-03 4.3080108255279248e-03  1.2228450451460550e-02 -5.2847322300777410e-03 4.1490834911743386e-03  1.1977904149275968e-02 -4.7686097026651275e-03 4.0085112544181595e-03  1.1716014674654352e-02 -4.2291586048752569e-03 3.8819058217505337e-03  1.1450557937310549e-02 -3.6627244371344641e-03 3.7653357551252751e-03  1.1189878579005894e-02 -3.0608425989437959e-03 3.6590641735826453e-03  1.0950173402940130e-02 -2.4107752201950245e-03 3.5716581599001388e-03  1.9084125349100013e-02 -4.4905020938344163e-03 1.2265646180917649e-02  1.8309330247075001e-02 -4.2188743888606208e-03 1.0976557801313919e-02  2.0215629945055862e-02 -4.6837084637220503e-03 1.2677159802470649e-02  2.0523899554833112e-02 -4.0964926748747474e-03 1.2687907578158119e-02  1.8612387504651277e-02 -3.6055262214537984e-03 1.0966665247613507e-02  1.9477858477493309e-02 -3.9332572164038140e-03 1.2325235342576480e-02  2.0845666307478670e-02 -3.5277190074614693e-03 1.2644196548505142e-02  1.8939898231446463e-02 -3.0099360480851530e-03 1.0913015394676606e-02  1.9893954372854170e-02 -3.3912145808651750e-03 1.2335616048875507e-02  2.1197378097130650e-02 -2.9738364009902541e-03 1.2541883855020752e-02  1.9308766457862728e-02 -2.4297732110898974e-03 1.0814245013675543e-02  2.0356353776808247e-02 -2.8628507825668096e-03 1.2292098848098650e-02  1.2461806589116447e-02 -6.6554065112993735e-03 2.6403240784216753e-03  1.1979542325833372e-02 -6.3359663627662712e-03 2.4026727255734379e-03  1.1489284859223049e-02 -5.9904078672646027e-03 2.1939138080642731e-03  1.0992033652146392e-02 -5.6164553404710136e-03 2.0019222833797452e-03  1.0487674189