<?xml version="1.0"?>
<VTKFile type="UnstructuredGrid"  version="0.1"  >
<UnstructuredGrid>
<Piece  NumberOfPoints="941" NumberOfCells="4037">
<Points>
<DataArray  type="Float64"  NumberOfComponents="3"  format="ascii">8.343726342201517 3.94649873602344 1.337671600620535  8.239969820286356 3.919744049257905 1.325989551393637  8.313488361973585 3.984345728894108 1.431192176324541  8.299362810092113 4.049046138419655 1.404785612938534  8.228720571008056 3.982263070026244 1.29197226741454  8.330439592025614 4.009245224871819 1.303349356603288  8.285451393068659 4.113810506600871 1.378245206062355  8.217580714647086 4.044803701304532 1.257819529650936  8.31732070659897 4.072009071604265 1.26894055411169  8.271602657925657 4.178638669634904 1.351624072986166  8.206463296881161 4.107384829021377 1.223579667695483  8.304257199970186 4.134802043561025 1.234460929268231  8.257709560738704 4.243527719697726 1.324958400263295  8.195297506779962 4.170011079288298 1.189276657086578  8.29115692327203 4.19762391777882 1.19992193951389  8.24366057370926 4.308470005871381 1.298273355035456  8.184016265587744 4.23268588341095 1.154930903256453  8.277928814169051 4.26046624004281 1.1653301286072  8.229260341801965 4.373434978107928 1.271587946262003  8.172521172201725 4.295448759630711 1.120552910519801  8.26447042177897 4.323290073448154 1.130705623305655  7.934440710294164 3.997439614449585 2.198130916549096  7.832696423679625 4.000708113402715 2.139686622857154  7.86853945463513 3.989685264426098 2.295754972297622  7.871337222044698 4.047120218036699 2.300233483382296  7.8345960521989 4.059753398786164 2.142443208276615  7.933718358233222 4.055547616982287 2.203091091996743  7.836391882886629 4.118991856269262 2.145160288893846  7.932960985698721 4.113867507161552 2.208005606545632  7.874037363446805 4.10481355364467 2.304732446270388  7.838121782580591 4.178465119965788 2.147883021778873  7.932181097251869 4.1724353526761 2.212935413651445  7.876702759779946 4.162741737316836 2.309248784603636  7.839843905707599 4.23817754441224 2.150642093706682  7.931399212220525 4.231271056683665 2.217919857422229  7.879386235185541 4.220928294232024 2.313803539795805  7.841603294341793 4.298156419125681 2.153467800950978  7.930630483257713 4.290433839191646 2.223007611554669  7.882151188105116 4.279430253612083 2.318413133843713  7.929857522858907 4.349974512343684 2.228260961943342  7.843497111981597 4.358537995520314 2.156427973154706  7.885095326526407 4.338329901853133 2.323126905538317  8.207475029603891 3.967695244631578 2.47057760246273  8.171864728267227 3.982341062613199 2.369459403059518  8.087444406710059 3.973848497477081 2.415720925543038  8.086574877081913 4.029484126079774 2.423634102753222  8.168632146551568 4.03787766554902 2.378107055287793  8.20550590422692 4.022391793229614 2.480602212822068  8.085721376337629 4.085357329266033 2.431530702328439  8.165464825771934 4.093685546858451 2.386686239087987  8.203595160127625 4.077335990856516 2.490588676655047  8.084879726262763 4.141492720306021 2.439461980442442  8.16230581811867 4.149748577596275 2.395299018409189  8.20169358416679 4.132537791930126 2.500614019783844  8.084039612131679 4.197915058000834 2.447469683684047  8.159116339320475 4.206078407331259 2.404003137026968  8.199771187598893 4.18802489099375 2.510723389529691  8.083190475446944 4.254691792651064 2.455594620413413  8.155844599490791 4.262701187666272 2.412853185922518  8.197784683976572 4.243846040476119 2.520979962881519  8.082264986000348 4.311919540489148 2.463895897236507  8.152429197691882 4.319718417676606 2.421904758239475  8.19571086165174 4.300096826737729 2.531458913783163  8.144792245278499 3.95270647435495 2.553652667827423  8.144909257366267 4.007286675836069 2.563094986742033  8.145033731006141 4.062119986655923 2.572562614889263  8.145181086948975 4.117221348506737 2.582056185523195  8.145347308488459 4.172624725008237 2.591618395128133  8.145542097081975 4.228406477803728 2.601282778316311  8.145681757268314 4.28466246339261 2.611135735169881  8.195955422444648 3.976351966118678 1.469619459313372  8.184877971651284 4.041183289385097 1.446068932298798  8.173928309278988 4.106107067299129 1.422335406506712  8.162989907146565 4.171130595457315 1.398510061730141  8.151988827343047 4.236248072946024 1.374647380942567  8.140840871537479 4.301467472820772 1.350778739478122  8.129430578999406 4.366800354321525 1.326925429614461  7.750478744671098 4.00154869779594 2.267713075281797  7.755952496677304 4.059777013513634 2.270668032482279  7.761272887095173 4.118278540516778 2.273673120305146  7.766542138638913 4.176982569528078 2.276704075308301  7.771849793436668 4.235919165618624 2.279750978358936  8.294816223362385 4.049261228695586 1.967635809802287  8.173430951253961 4.020466724583418 2.077507408631679  8.311303499710379 4.038644455776517 2.085645466780971  8.301314028768589 4.097631990500277 2.092046214211678  8.166433489209712 4.079687122053372 2.082519817117849  8.282535861433791 4.11017266339964 1.971674489761229  8.270523184886772 4.171289698658777 1.975513169044637  8.159564805173561 4.139155299367092 2.087383775420166  8.291546283481079 4.156929643442346 2.098273926503519  8.152706005418073 4.198827267661041 2.092233166946296  8.258575972086913 4.232614474175747 1.979327006626255  8.281819394883978 4.216420062928576 2.104473600375389  8.145762453433161 4.258709272714468 2.097175136945506  8.246534022581084 4.294090790446432 1.983226429171328  8.271994341994377 4.276076238640846 2.110757888602808  8.234261738735649 4.355692881251115 1.987258321554007  8.13866060033668 4.318873674400593 2.10227512559805  8.261941554448029 4.335860647034629 2.117183879328102  8.221486929936338 4.417436731622852 1.991501554946359  8.131284171890417 4.379374826281685 2.107593686497002  8.251500654600827 4.395870596503079 2.123837790335006  8.863713397737618 4.042471805275261 1.302634377542037  8.72390637190086 4.025993198228575 1.329497282865088  8.797870702052752 4.083990365694747 1.421130434442841  8.784602704513889 4.150843498321073 1.391042412136392  8.710193101043014 4.090422024821722 1.292937414167217  8.839770892509003 4.171169007916782 1.224927231872021  8.69664046689187 4.154792053521359 1.256480117277977  8.771493836647528 4.217572563826119 1.361092085009697  8.758456028126442 4.284192741003763 1.331191999675409  8.683155376348319 4.219099077054966 1.220058798470216  8.827884197498031 4.235425881426727 1.186186468852436  8.745426700641245 4.350715430956195 1.301289389688614  8.6696699985309 4.283333203400014 1.183624049932796  8.816003224131565 4.299599006256977 1.147437643468715  8.732361280168684 4.417132087565784 1.271357068380946  8.65612558779036 4.347471305162714 1.147147122598396  7.868450401113043 4.19538834789525 1.884302756468349  7.956578961724018 4.200731465733663 1.804713986302218  7.947529118330603 4.197780309162228 1.905381781765047  7.960663829673428 4.137038050254168 1.807735089370143  7.944179045432949 4.260366466597012 1.904709754407747  7.866183433816296 4.258241663446713 1.882957737812539  7.952408682793303 4.264643690275234 1.801741110634246  7.940763495898951 4.323207711233263 1.90414662407188  7.863887352110127 4.321361688586125 1.881705517350889  7.948164658267104 4.328802384271987 1.798873032210585  7.937333450136081 4.386334170620517 1.90375398734405  7.861575115874005 4.384783737538389 1.880619011897668  7.943893601698388 4.393255085425012 1.796181506440157  8.861132847408005 4.290668652625956 1.294956135853485  8.848455533801751 4.357354369214433 1.263698095991884  8.835747913096137 4.423935841610719 1.23242074301525  8.16599814673874 4.031075829130984 1.93808329003652  8.158313967931692 4.092681801976757 1.939055375397602  8.150751190592052 4.15452507392535 1.939831763111831  8.14317620075261 4.216581550600152 1.940597700282415  8.135501015017077 4.278835870019332 1.941435148775635  8.127644304015236 4.341312067930456 1.942400032715373  8.119559628845932 4.404087396917643 1.943545720192631  8.980347016428576 4.091714841892723 2.375714233287916  8.950787244282248 4.130685335992926 2.242382029309165  8.876142600290281 4.089197535295416 2.347588758868751  8.86907845556552 4.144008504589112 2.366283225463278  7.871596956215917 4.195718950996588 1.73585837291229  7.86820397395907 4.260197528301141 1.729510578619706  7.864761692617803 4.324916924284755 1.723245363256932  7.861268879602404 4.389901541804673 1.717102732365115  8.641158003751638 4.109384749881825 2.148948306547229  8.519330082205501 4.082375140360138 2.134451673456707  8.593792322857924 4.071531364738894 2.242418308059487  8.581680015762974 4.127695976569326 2.257838487620647  8.50460147378662 4.140487023922005 2.146179148986045  8.62836458447064 4.168122815414575 2.162884459349742  8.569855334184085 4.184069621277464 2.27303088972296  8.490226419037391 4.198819369208998 2.157699298695921  8.615870248209896 4.227003554647759 2.176586808689933  8.558101456099829 4.240573213543382 2.28819908723852  8.475942941982137 4.25728443170374 2.169199286938852  8.603429508828077 4.285963728813301 2.190279097248888  8.546273502502078 4.297155171763295 2.303459790007211  8.461575369512028 4.315833230345671 2.180787339266409  8.590917310138911 4.344949133078616 2.204041016723417  8.534246311046781 4.353753491489198 2.318878470561119  8.446951752638228 4.374421904865243 2.192522382382966  8.578236709969996 4.403874505510972 2.217919101869957  8.521863335947629 4.410239304122749 2.334515950232033  8.431842236955722 4.432918124382285 2.204475043771142  8.565321349110906 4.462614839007496 2.231936553694808  8.703504692983365 3.926478746397023 2.737216955425222  8.60492256597805 3.950696752948628 2.643635325104742  8.54741901508455 3.907162251800965 2.767589484694996  8.545346445110837 3.958421845110029 2.783376802012124  8.600157413984315 4.002043190026303 2.659990807645748  8.699752227741014 3.97686158163255 2.754762765166923  8.543358656859057 4.009931871893698 2.799130168393453  8.595518333356223 4.0536512283433 2.676252213095
[...]
<PointData  Vectors="f_16"> 
<DataArray  type="Float64"  Name="f_16"  NumberOfComponents="3" format="ascii">2.4959254739398241e-02 -8.5921491291876574e-03 -1.7708185053576721e-03  2.5942161004499129e-02 -9.5152841141354499e-03 -1.6085096285983857e-03  2.5119359772399569e-02 -9.4522224033482972e-03 -1.1833159290247745e-03  2.4341218885065581e-02 -9.1478996171692126e-03 -8.0473514918309578e-04  2.5187229470777315e-02 -9.1349685471413377e-03 -1.3353306588715914e-03  2.4140356950670166e-02 -8.2076528908402082e-03 -1.4895631006151915e-03  2.3653931001810739e-02 -8.8131824372917056e-03 -4.7466451517670047e-04  2.4517164843039729e-02 -8.7485118868106740e-03 -1.1227537590188367e-03  2.3422484006663705e-02 -7.8293249427413975e-03 -1.2509972343182512e-03  2.3007879588502422e-02 -8.4601073972725375e-03 -1.7117853172685200e-04  2.3878244476758514e-02 -8.3527682656124140e-03 -9.3398147135594805e-04  2.2745120220987868e-02 -7.4514186427719793e-03 -1.0314532657307858e-03  2.2347902276433823e-02 -8.0927834635758974e-03 1.2915661915054210e-04  2.3224594217217998e-02 -7.9460493651507935e-03 -7.4749118582022778e-04  2.2055799311861444e-02 -7.0722496686935390e-03 -8.0977354517960997e-04  2.1619906792789058e-02 -7.7178180266115615e-03 4.4261325294559650e-04  2.2513883663627755e-02 -7.5258160851363167e-03 -5.4633595273618628e-04  2.1304613710945199e-02 -6.6944479943840023e-03 -5.6924597895017799e-04  2.0798794188940126e-02 -7.3391808767200280e-03 7.6777076580158369e-04  2.1687526104041056e-02 -7.0726421640858392e-03 -3.3127470200050867e-04  2.0457790735543546e-02 -6.3300135577820538e-03 -3.0611064966641968e-04  2.4950559251860380e-02 -1.6040223129760996e-02 3.3140949504951197e-03  2.5526613935505236e-02 -1.5295589324267394e-02 3.5019166343044843e-03  2.4736760098784498e-02 -1.5829346016507092e-02 4.0472841619690371e-03  2.5192553954801251e-02 -1.5898393555177786e-02 4.1172463792181367e-03  2.5907747472704763e-02 -1.5327653016472858e-02 3.6285905423483812e-03  2.5243419795577489e-02 -1.6083393079955630e-02 3.4717142533403121e-03  2.6251419248696607e-02 -1.5265310986425669e-02 3.7682951091729485e-03  2.5516811246766292e-02 -1.6029111715544643e-02 3.6433406266717090e-03  2.5611991107077743e-02 -1.5876681628677874e-02 4.2045044909827436e-03  2.6576327119153441e-02 -1.5113668591139629e-02 3.9218723536212042e-03  2.5782887508462068e-02 -1.5880565718490676e-02 3.8298719239263221e-03  2.6016132148995612e-02 -1.5767936058355973e-02 4.3096284277306567e-03  2.6903817405914333e-02 -1.4871130796665445e-02 4.0924430853452832e-03  2.6054101991409055e-02 -1.5633342703473847e-02 4.0356834878302970e-03  2.6428823958687921e-02 -1.5568753473591237e-02 4.4304325523343586e-03  2.7259261923854378e-02 -1.4524174652739376e-02 4.2862900414519485e-03  2.6342717651615569e-02 -1.5272240960933428e-02 4.2697970848652022e-03  2.6873788802896682e-02 -1.5264251655674532e-02 4.5644188068153287e-03  2.6650872588349618e-02 -1.4764325137680848e-02 4.5421601700680568e-03  2.7671137143871566e-02 -1.4024688246110938e-02 4.5136899504967199e-03  2.7394539791581275e-02 -1.4812386606408032e-02 4.7291494761235878e-03  2.3282351048662536e-02 -1.7889531728656698e-02 2.9439458065808680e-03  2.3697684839485953e-02 -1.7398243169267490e-02 2.7572186291567055e-03  2.3723204433544382e-02 -1.7378435943839334e-02 3.4197852473057261e-03  2.3980944558448888e-02 -1.7459201712552878e-02 3.5351254689146849e-03  2.3805711314127988e-02 -1.7475451446005961e-02 2.9580216118175588e-03  2.3430723126899863e-02 -1.7976018173907437e-02 3.0921795844632669e-03  2.4236181467908315e-02 -1.7443330904359254e-02 3.6639784386694125e-03  2.3926046351366807e-02 -1.7456253091812098e-02 3.1652009796253769e-03  2.3587368625205649e-02 -1.7965298077892072e-02 3.2466291813678014e-03  2.4491753563871156e-02 -1.7333363348688190e-02 3.8110505470782979e-03  2.4050339835530479e-02 -1.7343437770316477e-02 3.3895883206120246e-03  2.3747493659339040e-02 -1.7859043103033434e-02 3.4182192389385019e-03  2.4750038550897736e-02 -1.7120491113650979e-02 3.9826789236625205e-03  2.4169682072658891e-02 -1.7134628476937516e-02 3.6429880995910795e-03  2.3905127805602736e-02 -1.7652200900740107e-02 3.6193989529567385e-03  2.5011646590915416e-02 -1.6786814406990511e-02 4.1892074253500394e-03  2.4271243871329971e-02 -1.6819329783975438e-02 3.9414845644763774e-03  2.4051451475986984e-02 -1.7335322997934326e-02 3.8666036301249207e-03  2.5265979957304670e-02 -1.6309692640019025e-02 4.4485438619387783e-03  2.4349484269510242e-02 -1.6359805109086956e-02 4.3026196075881575e-03  2.4180692326312359e-02 -1.6883042066840361e-02 4.1778810669254257e-03  2.3163228275768895e-02 -1.7946734736962445e-02 3.6721347109584584e-03  2.3457557851732098e-02 -1.8038677301506854e-02 3.7146222298103178e-03  2.3747098200919230e-02 -1.8037213930396378e-02 3.7737099908651444e-03  2.4039276088883340e-02 -1.7941445321596923e-02 3.8487453521254115e-03  2.4339270161304882e-02 -1.7740870158155259e-02 3.9426322434507948e-03  2.4644700523932403e-02 -1.7411684221642527e-02 4.0688323465082861e-03  2.4944773560965205e-02 -1.6948966286070451e-02 4.2604530240949847e-03  2.6052341270466628e-02 -1.0765723767574493e-02 -7.0413240834526179e-04  2.5382468124833694e-02 -1.0485175683856615e-02 -3.1342095708127184e-04  2.4780893454184907e-02 -1.0152255161035278e-02 1.1530189742943516e-05  2.4206479583783837e-02 -9.7807571392712952e-03 3.0420403434670509e-04  2.3614308229308486e-02 -9.3754570932370693e-03 5.8863674946664740e-04  2.2954443435452172e-02 -8.9361924568925506e-03 8.8333245635801173e-04  2.2214364469016545e-02 -8.4511170274673662e-03 1.1847067775603418e-03  2.5349380483188327e-02 -1.4756115486990254e-02 4.4322270585867981e-03  2.5919917187999374e-02 -1.4816645941770911e-02 4.4575281876934672e-03  2.6439531716453499e-02 -1.4793536333410776e-02 4.5084791706756560e-03  2.6935030561769862e-02 -1.4692192958881724e-02 4.5781722917764686e-03  2.7441829650088196e-02 -1.4512128428264560e-02 4.6598371400735231e-03  2.4518501146755304e-02 -1.4030083207607373e-02 9.6868696380679193e-04  2.4737744281477323e-02 -1.5575247234359808e-02 1.7362095885904334e-03  2.4150016133658154e-02 -1.4980240894085325e-02 1.2053397845673659e-03  2.3814016028113682e-02 -1.5030226477608722e-02 1.6638719131230016e-03  2.4578399273782001e-02 -1.5618823624145220e-02 2.1108126546528177e-03  2.4090224162372061e-02 -1.4064034974555724e-02 1.4584604398872358e-03  2.3737329446477017e-02 -1.3997638059241492e-02 1.9231860583337178e-03  2.4444287642317618e-02 -1.5559975925942191e-02 2.4766753429652792e-03  2.3533560572866732e-02 -1.4987301989665650e-02 2.1020457877815369e-03  2.4319046072117625e-02 -1.5414281711057236e-02 2.8483644604091890e-03  2.3411958716361255e-02 -1.3858194603186658e-02 2.3858926601532889e-03  2.3274622831111112e-02 -1.4866299679708457e-02 2.5403666678831620e-03  2.4180102196083731e-02 -1.5185406611101418e-02 3.2437486504819199e-03  2.3066175479068720e-02 -1.3660589200501441e-02 2.8650220837963813e-03  2.2995955288988894e-02 -1.4684846007830548e-02 3.0005605184257275e-03  2.2643062355312705e-02 -1.3413970658653403e-02 3.3843910722392294e-03  2.3981542342681777e-02 -1.4849346551136750e-02 3.6883620322319668e-03  2.2644222649265189e-02 -1.4450661429027907e-02 3.5050247659975647e-03  2.2233301108934244e-02 -1.3105078418982806e-02 4.0226328521376113e-03  2.3798362172169359e-02 -1.4403328539000056e-02 4.2047779651678318e-03  2.2304481014738489e-02 -1.4138361147634957e-02 4.1228390102146292e-03  1.9281052472069311e-02 -3.5573877271021888e-03 -2.9630787227034748e-03  2.0846562000513606e-02 -4.8751078583657232e-03 -2.5820919786468358e-03  1.9895217421789138e-02 -4.8076315963887306e-03 -2.2771206173129899e-03  1.9161926907057602e-02 -4.3176980749889560e-03 -1.9785145208837912e-03  2.0034595720897611e-02 -4.3885118729811434e-03 -2.3815837616497928e-03  1.7844223100925569e-02 -2.5885193586261440e-03 -2.5978156307435774e-03  1.9281308315333385e-02 -3.9698691983746006e-03 -2.1321949911189994e-03  1.8428957757921256e-02 -3.8994319443340203e-03 -1.6130146013879729e-03  1.7737589168416796e-02 -3.5506442286766236e-03 -1.2347020451239053e-03  1.8572343626044652e-02 -3.6153254457396314e-03 -1.8602021361117810e-03  1.7178777417182614e-02 -2.2280518729832889e-03 -2.3489710369273002e-03  1.7058357641145175e-02 -3.2586828945635506e-03 -8.3580183725966194e-04  1.7870226279909422e-02 -3.3119448052694269e-03 -1.5599295089189058e-03  1.6523031040447340e-02 -1.9273212543491267e-03 -2.0640423567517877e-03  1.6367219890839745e-02 -3.0194484741461851e-03 -4.0849987908532747e-04  1.7145749186911256e-02 -3.0571063979097251e-03 -1.2255377872849972e-03  2.6771676961590423e-02 -1.4161137444752902e-02 2.9689978173496564e-03  2.6095395838470734e-02 -1.3755317074839324e-02 2.5184471283824466e-03  2.6082524750536074e-02 -1.4396199631744190e-02 2.8759065710624917e-03  2.6216682330083091e-02 -1.4021692334229396e-02 2.2109956028458781e-03  2.6048903341595913e-02 -1.4063477404428705e-02 3.1800093452313176e-03  2.6833323436476583e-02 -1.3818598829345399e-02 3.2262665038328992e-03  2.5960056770912093e-02 -1.3396529663585255e-02 2.8362832675745222e-03  2.6004385049186441e-02 -1.3624922325637927e-02 3.5161223453405053e-03  2.6895305465319621e-02 -1.3371510323007436e-02 3.5101269536166849e-03  2.5808884978448129e-02 -1.2938042208200714e-02 3.1851113625984387e-03  2.5954733803631520e-02 -1.3065266302082794e-02 3.9028701003942109e-03  2.6953067864570909e-02 -1.2816109376568376e-02 3.8381223966522005e-03  2.5644343083624888e-02 -1.2362027307204393e-02 3.5896878981938442e-03  1.6791154913052671e-02 -2.5146938166590712e-03 -1.6621145432465358e-03  1.6153715089406308e-02 -2.2270087241921381e-03 -1.2778502345406350e-03  1.5509965763721134e-02 -1.9953665411094872e-03 -8.6277302564240752e-04  2.5209811776096349e-02 -1.4545920527307202e-02 1.3165410913241428e-03  2.4926240409781152e-02 -1.4541197431950578e-02 1.7392166319346498e-03  2.4674706669292171e-02 -1.4431405421928549e-02 2.1406784198878905e-03  2.4429216517117196e-02 -1.4236430669721706e-02 2.5402596962484383e-03  2.4159510861334329e-02 -1.3964953129162815e-02 2.9591094525776239e-03  2.3828376662496202e-02 -1.3607075527912668e-02 3.4225311220967389e-03  2.3521943696063016e-02 -1.3141251457429776e-02 3.9477507483003521e-03  1.8918514114157823e-02 -1.3574410091154804e-02 -3.9899587062398780e-04  1.8844948025912189e-02 -1.2181189456751928e-02 -4.5745032610425458e-04  1.9723092469337133e-02 -1.3848790469285270e-02 -1.1414486965426312e-04  1.9411893592384342e-02 -1.3902311136869993e-02 4.4970767069066949e-04  2.6914393586311404e-02 -1.3348564827714553e-02 2.4072663060068140e-03  2.6838376097836843e-02 -1.2952806079152914e-02 2.6687844078089086e-03  2.6751180511610139e-02 -1.2459128699141554e-02 2.9546953534583739e-03  2.6639605648962533e-02 -1.1877271393310133e-02 3.2854017126712864e-03  2.1566944881222527e-02 -1.3115685338153733e-02 4.2565450552670549e-04  2.2666218832292126e-02 -1.3933928840593619e-02 7.3048883906061369e-04  2.2021607877185559e-02 -1.4557461720314727e-02 6.4118659051526209e-04  2.1624743632557470e-02 -1.4639407393723014e-02 1.1822562374235737e-03  2.2204465627935627e-02 -1.4003427465052823e-02 1.2827854938661941e-03  2.1086698634580989e-02 -1.3142927595459260e-02 1.0438659866227069e-03  2.1296221868175622e-02 -1.4661058554104447e-02 1.6887540869605748e-03  2.1831233344757502e-02 -1.4004800087406609e-02 1.8078000276736644e-03  2.0682914735628832e-02 -1.3137758274416753e-02 1.6169269790616587e-03  2.0995539731027409e-02 -1.4634792358961125e-02 2.1880432989424604e-03  2.1493687022326610e-02 -1.3955803829431686e-02 2.3278755665791283e-03  2.0307113132895318e-02 -1.3107381309068826e-02 2.1796925095343210e-03  2.0686260177248100e-02 -1.4576003046564366e-02 2.7042231477142106e-03  2.1142942488120663e-02 -1.3873603060728393e-02 2.8637142908124343e-03  1.9925046296923345e-02 -1.3066130679360128e-02 2.7545946363032774e-03  2.0332366783662490e-02 -1.4510099330308446e-02 3.2582039359968337e-03  2.0734296758378221e-02 -1.3789198470904802e-02 3.4336142345728340e-03  1.9513315032063799e-02 -1.3035583715535728e-02 3.3569666165378658e-03  1.9939703320811446e-02 -1.4472140660333161e-02 3.8936929585796855e-03  2.0290124895575443e-02 -1.3737230014069533e-02 4.0981416001139729e-03  1.9055734733952005e-02 -1.3044627776776809e-02 4.0035528300600759e-03  2.1338490103399620e-02 -1.8262169773075588e-02 1.5348967572134501e-03  2.1744638327575269e-02 -1.8178079629380572e-02 1.5222919391253381e-03  2.1902313470126448e-02 -1.8925500795407741e-02 2.3536030531285048e-03  2.1877902708060625e-02 -1.9021623345187338e-02 2.3697858079670632e-03  2.1617147921314459e-02 -1.8279394278425870e-02 1.7103091271818331e-03  2.1178074530189404e-02 -1.8348452537796184e-02 1.6312839491418850e-03  2.1869749112648912e-02 -1.9013556703055771e-02 2.3889173246442264e-03  2.1513326582067498e-02 -1.8284003773472914e-02 1.8868648010651487e-03  2.1035559311019705e-02 -1.8340743356271061e-02 1.7225540317876201e-03  2.1869567186239874e-02 -1.8904647124744680e-02 2.4250501867553861e-03  2.1419190210308678e-02 -1.8201551313815598e-02 2.0748637588971094e-03  2.0898911560990521e-02 -1.8244938166886559e-02 1.8269893112851274e-03  2.1865192579557522e-02 -1.8694639503219791e-02 2.4957380252485584e-03  2.1319662136693802e-02 -1.8037824146173369e-02 2.2973439531173518e-03  2.0756273562677518e-02 -1.8064567237814601e-02 1.9632197063545326e-03  2.1841147364761011e-02 -1.8382821932143811e-02 2.6238131588495438e-03  2.1195411587472259e-02 -1.7797261718867582e-02 2.5801024571518775e-03  2.0595269163839802e-02 -1.7801805769496297e-02 2.1544692007729530e-03  2.1796040582758025e-02 -1.7964642990667027e-02 2.8357244944697208e-03  2.1033006231995856e-02 -1.7489338246705347e-02 2.9563036595506111e-03  2.0406205897860134e-02 -1.7460670394142619e-02 2.4376108212013402e-03  2.5044839140047508e-02 -1.3497420501628984e-02 7.9630791746120651e-04  2.4585968868440645e-02 -1.3484857585246809e-02 1.2818536546700598e-03  2.4191583472422673e-02 -1.3373019320054335e-02 1.7347324786848349e-03  2.3823481336010074e-02 -1.3186007490367463e-02 2.1780046987593198e-03  2.3434633590858504e-02 -1.2939629510015050e-02 2.6322322662597204e-03  2.2966602019283380e-02 -1.2640081125650555e-02 3.1156524471327275e-03  2.2519409942362709e-02 -1.2256681867664923e-02 3.6826451319073362e-03  2.2086949606865407e-02 -1.2569235041036518e-02 4.4123949774224234e-04  2.1536292467659941e-02 -1.2565019432284495e-02 1.0565919631732262e-03  2.1082367366938196e-02 -1.2525219246988052e-02 1.6358665668249745e-03  2.0666375496796376e-02 -1.2460131569995770e-02 2.2066778318880712e-03  2.0242155372642807e-02 -1.2384721188984598e-02 2.7876951200779387e-03  1.9775995860012663e-02 -1.2322421823446962e-02 3.3904264666676938e-03  1.9269241355835610e-02 -1.2297431870803463e-02 4.0481406501787671e-03  2.4545053951469591e-02 -1.5398507309727243e-02 4.8206155524242993e-03  2.5132034700577215e-02 -1.5499023636007522e-02 4.7979687872687091e-03  2.5671738978537608e-02 -1.5514054145891980e-02 4.8039962467221415e-03  2.6193129302034986e-02 -1.5449626440092996e-02 4.8306481045851616e-03  2.6730769213508969e-02 -1.5304052003859344e-02 4.8670390802304014e-03  2.7332525604899585e-02 -1.5065350329023333e-02 4.8952650281555042e-03  2.5088068013328149e-02 -1.0373544258626698e-02 -5.7474693800275284e-04  2.4360059127163707e-02 -1.0146279892848990e-02 -1.2017977955639362e-04  2.3710288572288896e-02 -9.8648640023689359e-03 2.8883510683890820e-04  2.3093717294873032e-02 -9.5456484290373095e-03 6.7211977908657129e-04  2.2458678948255446e-02 -9.1989981307310006e-03 1.0525589502235926e-03  2.1751672256287918e-02 -8.8354506724778892e-03 1.4453503402238588e-03  2.1008836875751294e-02 -8.4479352667250832e-03 1.8600929468931861e-03  1.9518130011725948e-02 -1.4837517619551006e-02 -1.2619239665767178e-04  1.9242540218978952e-02 -1.4917119338336900e-02 3.2055461820304677e-04  2.2186858948930643e-02 -1.8525636041785833e-02 2.0492160278708549e-03  2.2152752377009814e-02 -1.8628881768531169e-02 2.1953481037764728e-03  2.2136629655169729e-02 -1.8631119729463380e-02 2.3350742549964505e-03  2.2128494472469201e-02 -1.8539588687001049e-02 2.4874843760355017e-03  2.2115512024609416e-02 -1.8358478966612756e-02 2.6744237067941913e-03  2.2084095840475722e-02 -1.8088266728808474e-02 2.9217324174029917e-03  2.2023520208852253e-02 -1.7709393655297764e-02 3.2595660476148788e-03  1.9791418322505999e-02 -8.6113696002965718e-03 -6.3400583607352409e-04  2.0585966186193971e-02 -8.6114299485183701e-03 -5.7881589828850792e-04  2.0622999880410758e-02 -9.9684099386032864e-03 -2.3631847969539743e-04  2.0028213786711206e-02 -9.7597172675976326e-03 4.3713606660948184e-04  1.9941301105845851e-02 -8.3291513125620907e-03 6.2417154645990494e-05  1.9210910407273317e-02 -8.3239440200923945e-03 4.4807826649375694e-05  1.9479155389958442e-02 -9.5910890289261884e-03 1.0719804693567977e-03  1.9319302711896080e-02 -8.1060034614786232e-03 6.7547948836827506e-04  1.8644832970581740e-02 -8.1039162019995292e-03 6.8591623904124455e-04  1.8959159322462490e-02 -9.4455694998820238e-03 1.6936552187333334e-03  1.8734320019905045e-02 -7.9155835623326842e-03 1.2815814584724017e-03  1.8103681091299857e-02 -7.9226602902069988e-03 1.3147300287399003e-03  1.8446144030156417e-02 -9.3230310071424315e-03 2.3179847646603801e-03  1.8157682581180716e-02 -7.7559015823570835e-03 1.8908301577763738e-03  1.7573258744324177e-02 -7.7755283203972429e-03 1.9451245094822425e-03  1.7922041725243098e-02 -9.2324862485745202e-03 2.9559976207089445e-03  1.7567167325084090e-02 -7.6349927258703787e-03 2.5112208043114748e-03  1.7043010856357194e-02 -7.6680948271921536e-03 2.5868695188525619e-03  1.7370644242155373e-02 -9.1940374469463050e-03 3.6132597652867703e-03  1.6943157771918505e-02 -7.5734941401911556e-03 3.1471787721840932e-03  1.6508306281044771e-02 -7.6171949408791340e-03 3.2462209326251600e-03  2.5876385133398877e-02 -1.1685763631437763e-02 -7.9417089680618822e-05  2.5282538807162320e-02 -1.1506770649609862e-02 3.7524857853536800e-04  2.4753971330404415e-02 -1.1248917648077335e-02 7.7099549241719969e-04  2.4247637169343968e-02 -1.0934363093038664e-02 1.1395399237504641e-03  2.3719996355683389e-02 -1.0568684221995937e-02 1.5042669642450900e-03  2.3116577323630150e-02 -1.0151930111295815e-02 1.8870253168653958e-03  2.2496449363894114e-02 -9.6817690774032260e-03 2.3046449852154485e-03  2.5448692158831908e-02 -1.5272755475104042e-02 1.9602416568746486e-03  2.5389295033078213e-02 -1.5280639763630687e-02 2.2962793431631260e-03  2.5330931538378506e-02 -1.5183090659512189e-02 2.6197351420217821e-03  2.5267909808726743e-02 -1.4990894274090212e-02 2.9472845592041215e-03  2.5190243397411216e-02 -1.4703228308953200e-02 3.2956889814478906e-03  2.5093382683704094e-02 -1.4306629382821026e-02 3.6844136903289725e-03  2.4986248718799325e-02 -1.3782007366427680e-02 4.1295734294258509e-03  2.0322515836938521e-02 -1.5278761245226147e-02 1.7237916653578292e-04  2.0034807970345108e-02 -1.5364732122633536e-02 6.3250490389260203e-04  1.9109581348953929e-02 -1.3915701760746640e-02 9.6954890367302420e-04  1.9764897396791378e-02 -1.5389797225051682e-02 1.0566597775128956e-03  1.8973016491007348e-02 -1.4938515611752230e-02 7.3661476386249031e-04  2.3438773174518809e-02 -1.6812103896119920e-02 1.7892689066259793e-03  2.3373954827314559e-02 -1.5984681870560267e-02 1.3536935421473346e-03  2.4027697539335389e-02 -1.6032285767065727e-02 1.6761649176225016e-03  2.3837864190871090e-02 -1.6089342630342091e-02 2.0621858006465736e-03  2.3116281667814580e-02 -1.6051539787682551e-02 1.7757622966225659e-03  2.3307233022360516e-02 -1.6888670338609326e-02 2.1305085334628725e-03  2.3687014313970883e-02 -1.6045511146028646e-02 2.4381294300686060e-03  2.2898277384522169e-02 -1.6029361246065920e-02 2.1787426412692977e-03  2.3207437779039962e-02 -1.6873027915182092e-02 2.4650165359671509e-03  2.3546628382419180e-02 -1.5916115931116828e-02 2.8237736035668032e-03  2.2694267877996437e-02 -1.5932512409116428e-02 2.5870044248800595e-03  2.3117129489829351e-02 -1.67723681