<?xml version="1.0"?>
<VTKFile type="UnstructuredGrid"  version="0.1"  >
<UnstructuredGrid>
<Piece  NumberOfPoints="932" NumberOfCells="4017">
<Points>
<DataArray  type="Float64"  NumberOfComponents="3"  format="ascii">9.250918961619394 2.013707376588747 3.365840233982101  9.146375792317491 1.959686764613508 3.295333092745922  9.259494719873731 1.968490263948421 3.282805838692333  9.266583839920157 1.921980351104521 3.308938844989155  9.152711828627011 1.912880317178977 3.32149193547875  9.258402648132513 1.96624775426431 3.392637162809253  9.273718314861782 1.875455437083497 3.335051108872095  9.159059469943569 1.866053742957618 3.347637663674076  9.265938074100212 1.918780662675375 3.41942126143037  9.280872045526566 1.8289259974973 3.361141207757924  9.165411207930026 1.819217561615923 3.373767370248894  9.273493886877311 1.871307967700135 3.446187086311895  9.288022585358549 1.782391360982063 3.387207493745593  9.171758495480761 1.772373226791066 3.399875591281844  9.281044703391631 1.823826399439473 3.472928131310409  9.295146140620803 1.735841822370441 3.413248240921744  9.178091456314691 1.725510489334015 3.425958076046675  9.288564215316438 1.77632289904019 3.499638076144687  9.302212273759251 1.689254975457997 3.439263773804057  9.184397759224769 1.678605335552223 3.452010853027968  9.296012945790935 1.728770618151617 3.526309844853104  9.524486172983208 1.894423738320423 3.072529535859104  9.425936205174128 1.908122245238897 3.127490306487424  9.454040413016964 1.845006067356836 3.006830537930293  9.462117805287527 1.799990561798499 3.031964015958329  9.433697916343521 1.862879790317049 3.152939067086798  9.532767908874277 1.849343625215287 3.097581882597165  9.441535273791397 1.817632619097159 3.178341634670738  9.541148005670079 1.804271914921158 3.122582606493121  9.47028009895376 1.75497564625529 3.057034723062074  9.549569224306838 1.759214274426862 3.147542702486218  9.44940726917504 1.772393200092095 3.203707192620144  9.47847653700012 1.709969501330268 3.082063338136365  9.557986983863577 1.714172279227788 3.172472275655399  9.45727723812381 1.727158900236281 3.229046545381786  9.486666930538741 1.664978140102654 3.107063166583217  9.566356117211036 1.669141222301906 3.197384520402304  9.465106826151798 1.681925791756036 3.254370310073452  9.494813029272098 1.619999946386539 3.132052485767023  9.574610962654242 1.624105167607541 3.222300768635864  9.472854383015324 1.636682019906344 3.279698687553435  9.502865496133451 1.575028018533279 3.157065589901537  9.106173268294368 2.004537289500544 3.3867556080836  9.112348389271085 1.956507159256393 3.413687881250496  9.118523979701466 1.908454745608153 3.440618898484783  9.124696280462558 1.860394154529095 3.46753642684747  9.130862731855672 1.812323189655337 3.494430899852875  9.137020124474551 1.764228320606335 3.521291869864875  9.14316116961408 1.716075242916831 3.548108956761991  9.233938421346204 1.79753018531484 2.987185471033776  9.111794812874162 1.800545649166652 3.025305589106762  9.175653729274483 1.745342640209099 2.911559987685989  9.182778768388836 1.698988943820645 2.935699832281367  9.118352899274024 1.755372836699925 3.051124515579041  9.241150984343594 1.752384815737196 3.012640818449581  9.189921057341014 1.652617583415595 2.959778947801913  9.124918618835913 1.71018032357636 3.076905948707676  9.248397406111616 1.70722012639642 3.038043293825028  9.197069441957751 1.606249229507294 2.98381980090106  9.131488010110468 1.664983138223322 3.102662278232927  9.255658201798616 1.662051289689505 3.063411749588939  9.204209094961694 1.559892028912796 3.007840611697807  9.138051604651805 1.619786723917534 3.128400900774147  9.262913762384699 1.616885575859003 3.088760116736033  9.211324768689726 1.513553486854173 3.031863055760142  9.144599034984356 1.574592527523099 3.154133698832636  9.270144081066581 1.571725968212041 3.11410670587014  9.218409662598631 1.467241118494792 3.055919658157674  9.151123974899932 1.529403629372927 3.179886977472352  9.2773283483534 1.526577134850723 3.139486355892784  9.41830148626337 1.643382968073219 2.723074582575824  9.561615566077061 1.641220067113647 2.65447893951913  9.432785009215388 1.610125665712554 2.600180355191136  9.553213561971107 1.692242699470965 2.639569533554867  9.426759377885492 1.593637514868357 2.740687860703411  9.570035501171018 1.590233652626806 2.66929588324331  9.440870852430967 1.557862730038447 2.61106941567902  9.435227025009036 1.543922334411281 2.758244459305654  9.578444181143873 1.53930262850067 2.684055724145317  9.448951915157117 1.505644631339751 2.621889858043449  9.443678852163966 1.494242886421793 2.775774962700814  9.315301173223533 1.862011725409944 3.078031271501674  9.322764280062762 1.816932538696325 3.103356067005297  9.330285903766857 1.771839484979805 3.128637748085295  9.337833439908536 1.726744190007989 3.153885496710627  9.345378550597824 1.681651370863371 3.179110451187882  9.352892651996189 1.636559904196288 3.204327655262742  9.360341367100661 1.591462404485242 3.229559638042024  9.531450350609168 1.728503791488539 2.735953809879736  9.409877606585853 1.693143319431934 2.705364267881262  9.540594936005231 1.680330778823749 2.756113298766748  9.549828950637805 1.632180973624405 2.776185638097265  9.559085605802967 1.58405514163403 2.796203786879412  9.56832905113186 1.535956636573396 2.81619318251358  9.586837609042124 1.488437148764276 2.698785212298447  9.577523470425488 1.487889862301967 2.836177320320437  9.595209206964054 1.437646002129307 2.713515477497376  9.452094264296669 1.444605793396784 2.793305881439113  9.586606884420551 1.439863350418983 2.856196155826101  9.60353357279309 1.386910975642145 2.728275697480514  9.460455404707185 1.395017150803877 2.810881404730827  9.184474899027624 2.049949990349765 3.447522700162807  9.191690606516159 2.001432323021779 3.475474946902072  9.198940881221477 1.95289812532356 3.503434322344683  9.20620110834372 1.904353177317983 3.531382141844783  9.213453909637144 1.855794266857616 3.559305710324684  9.220680937881308 1.807205465361875 3.587193421985621  9.227853806389467 1.758556961949861 3.615030005399384  9.709407690944154 1.902123005603988 3.02440005285621  9.592225169336851 1.859660044431384 2.985826730414292  9.699504934978968 1.855332441064002 2.942065743638327  9.707623368390083 1.810185002371635 2.966471151552831  9.600697719174043 1.814689324940672 3.010490471712902  9.717510533272618 1.857205742179049 3.049242161670457  9.715815567555602 1.765073341482306 2.990815330725347  9.609272388825071 1.769741949500768 3.035090976674607  9.725697163310304 1.812319390240226 3.074029259630966  9.724039519322716 1.719992018051312 3.01511518702274  9.617887576893594 1.724815545607013 3.059648236992586  9.733918977354479 1.76746181776472 3.098772342408028  9.732256263999231 1.674937076889004 3.03938026471122  9.626498596568622 1.679907857777652 3.08417454606258  9.742137660905197 1.722629460318233 3.12347890378809  9.74042730596223 1.629906780613282 3.063620262559307  9.635059894078843 1.635016177054113 3.108683201465833  9.750312918549753 1.677821612959735 3.148155713284262  9.748515055716656 1.584912079078024 3.08784697398292  9.643499770878918 1.59014119116891 3.133193685269172  9.758388515846658 1.633044231290631 3.172811771673822  9.053451292158375 1.732215234040939 2.92071080190189  9.060612111427776 1.685946618748096 2.945343810742381  9.06779233270996 1.639662530312767 2.969930781990021  9.074979874029337 1.593378562257735 2.994487633875786  9.082159599475677 1.547101132190012 3.019027865850384  9.089314692463189 1.500835381716854 3.043568388832449  9.096429032604737 1.454590155402958 3.068138820613463  9.616973285751035 1.926811391757401 3.099994983667287  9.625444642457371 1.881728438601003 3.125023006237132  9.634022233068773 1.83667260446819 3.149999884197557  9.642644729824832 1.791640151579214 3.17493539704942  9.6512649692463 1.746626901877976 3.199837090335987  9.6598335033314 1.701626763888976 3.224712914883857  9.668276213895815 1.656628950260787 3.249574261361489  10.03984147862216 2.226348394719944 3.421725925985607  10.01193616215183 2.296685405710492 3.520221804026187  9.923518264539888 2.205228622759854 3.434460237061309  9.93490343857925 2.161442049767071 3.467923667333565  10.02395079542228 2.254437363602232 3.558092662096177  10.05001830361192 2.183338746617562 3.456209560147581  9.946356211530489 2.117704904504752 3.501329887556471  10.03596240608238 2.212215437951124 3.59588774419749  10.06019095294298 2.14037309952941 3.490630943499025  9.957843670350931 2.074011954727003 3.534697421672738  10.0479843920236 2.170035489699097 3.633633018059499  10.07036863380568 2.09744440884566 3.52501298968644  9.969324745257886 2.030343701914614 3.568018540993776  10.06000098914388 2.127880157009638 3.671324094070142  10.08054086310018 2.054531669235125 3.559347898230558  9.980757873317923 1.98668991603327 3.601282064052555  10.07198908993941 2.085746288904322 3.708944994392793  10.09070129190978 2.01162981735118 3.593622278351318  9.992069229144667 1.943043128249598 3.634472609780897  10.08388741485013 2.043633208897166 3.746483609852024  10.10080983223401 1.968759282193734 3.627808490168735  9.336868105868648 1.940999841042107 3.212389324949369  9.344326011925144 1.895277658500508 3.238252964933476  9.351845093762471 1.849544186366745 3.264083994258761  9.359391955526275 1.803809205632118 3.289886258228228  9.366937032507758 1.758074128047967 3.315663414337766  9.374450736124908 1.712332204778161 3.341421087296365  9.381897047278805 1.666569864178201 3.3671675487356  9.115052741067467 1.688629813601506 2.812490695256929  9.12268219605844 1.640572821377027 2.834375978465501  9.130340181946332 1.592507026931747 2.856176460632742  9.1380113771302 1.544446839541991 2.877933471832157  9.145672713974605 1.496400297652327 2.899672083006349  9.153299825069793 1.448378101264741 2.92141743746317  9.160876779799297 1.400399998091809 2.943211225640894  9.893284387410402 2.269490201315185 3.527292891471881  
[...]
<PointData  Vectors="f_16"> 
<DataArray  type="Float64"  Name="f_16"  NumberOfComponents="3" format="ascii">2.3938578971504542e-02 -1.3940890969075430e-02 1.5431746489145885e-02  2.5368499092953360e-02 -1.4388183511626830e-02 1.5338850399125395e-02  2.3807372106459286e-02 -1.4126005256859125e-02 1.5076063437015688e-02  2.4187758302414906e-02 -1.4448837302444336e-02 1.5265969762539853e-02  2.5624353938877450e-02 -1.4722428648009893e-02 1.5534302986232894e-02  2.4326565418623245e-02 -1.4253259901207368e-02 1.5646032662399081e-02  2.4555956311926631e-02 -1.4704794134974939e-02 1.5430767730497064e-02  2.5882830046622056e-02 -1.4989028154397477e-02 1.5705762850720398e-02  2.4697919148140453e-02 -1.4493254674533289e-02 1.5833673340259539e-02  2.4912751392415080e-02 -1.4901409069949028e-02 1.5571805884667243e-02  2.6137794901077344e-02 -1.5195232623924457e-02 1.5853590579862849e-02  2.5057091287187125e-02 -1.4669372236995029e-02 1.5995121359637265e-02  2.5258800214393667e-02 -1.5041315183623536e-02 1.5688750342003299e-02  2.6384005539699995e-02 -1.5344762991946250e-02 1.5978012878427872e-02  2.5405563756295824e-02 -1.4785186270693659e-02 1.6131975520982913e-02  2.5594214731343327e-02 -1.5123706555838529e-02 1.5780791703256566e-02  2.6615662035303533e-02 -1.5437509829590966e-02 1.6078452036584832e-02  2.5744410181435570e-02 -1.4839840000253988e-02 1.6245849972775790e-02  2.5918857627061781e-02 -1.5143861748013247e-02 1.5846242557432926e-02  2.6826024831483702e-02 -1.5469357389855600e-02 1.6153296766400625e-02  2.6074697790165132e-02 -1.4827326952744600e-02 1.6338853514630023e-02  2.0250651613515483e-02 -1.3182243677561283e-02 1.3002419595129877e-02  2.1546129692358751e-02 -1.3679853727315054e-02 1.3785226387920653e-02  2.1338080017011176e-02 -1.3628608388651726e-02 1.3142009315548603e-02  2.1794846504435472e-02 -1.3929500809422785e-02 1.3277780418092156e-02  2.2032034137002120e-02 -1.3974446736866045e-02 1.3944516807825701e-02  2.0778959215133602e-02 -1.3446263375416408e-02 1.3163908119994785e-02  2.2522372390750861e-02 -1.4231641120887952e-02 1.4069381558937347e-02  2.1315885489751010e-02 -1.3686421045449183e-02 1.3281854389988048e-02  2.2264830124421233e-02 -1.4201860259636151e-02 1.3367902815360466e-02  2.1843317190126877e-02 -1.3891103016056549e-02 1.3370370155073504e-02  2.2995948302163911e-02 -1.4439753912943403e-02 1.4168403940433127e-02  2.2734933709259008e-02 -1.4435098336679733e-02 1.3426632588946455e-02  2.2362307459421808e-02 -1.4054867486702790e-02 1.3438470204535664e-02  2.3459438103156524e-02 -1.4600481847902429e-02 1.4243726866928080e-02  2.3196936540332155e-02 -1.4624711774196860e-02 1.3462004685287281e-02  2.2884247904894090e-02 -1.4174838461878137e-02 1.3484866817825092e-02  2.3919726222145676e-02 -1.4712961541945560e-02 1.4293932496249861e-02  2.3659451359324787e-02 -1.4769047336481447e-02 1.3473142100411823e-02  2.3421556125596311e-02 -1.4245967068568002e-02 1.3507005755653438e-02  2.4382207759779340e-02 -1.4773939184808026e-02 1.4315798991219821e-02  2.4128791215910172e-02 -1.4861792061834694e-02 1.3453468084401779e-02  2.5956943627797185e-02 -1.4215608531103246e-02 1.5733343775319448e-02  2.6170755687022179e-02 -1.4543413316092607e-02 1.5960233680147682e-02  2.6393064241547748e-02 -1.4795177106536064e-02 1.6159323396336928e-02  2.6616000786333919e-02 -1.4982826670266056e-02 1.6332849442591498e-02  2.6830677899684442e-02 -1.5111220522740791e-02 1.6483309775589160e-02  2.7028731405068115e-02 -1.5179855372918362e-02 1.6612776570744298e-02  2.7202485735012844e-02 -1.5182880980431168e-02 1.6723736192692365e-02  2.4260665711152589e-02 -1.4490320354444454e-02 1.3867666397315539e-02  2.5784062602567336e-02 -1.4768936880040598e-02 1.4208870269039043e-02  2.5050358635433818e-02 -1.4569538505503951e-02 1.3628515311570940e-02  2.5327932576420287e-02 -1.4948055245147597e-02 1.3669739439703728e-02  2.6021801696212595e-02 -1.5132808348446960e-02 1.4307529512959102e-02  2.4578195591351507e-02 -1.4849537065784376e-02 1.3959860474348407e-02  2.5619202021187212e-02 -1.5277665746906085e-02 1.3690817941867488e-02  2.6263574942299157e-02 -1.5442061923986151e-02 1.4390186137189896e-02  2.4902779786474993e-02 -1.5161122389705441e-02 1.4025962969018832e-02  2.5914231335676826e-02 -1.5560440829186801e-02 1.3690202824421427e-02  2.6504329346256763e-02 -1.5702517749839599e-02 1.4452282515572385e-02  2.5225126168262162e-02 -1.5424335072751875e-02 1.4068254979896251e-02  2.6204425704491042e-02 -1.5800126988438645e-02 1.3667376310207336e-02  2.6738210706157554e-02 -1.5918083709143275e-02 1.4490707084109015e-02  2.5541542953198812e-02 -1.5641311930906621e-02 1.4085766290861015e-02  2.6483727236420219e-02 -1.6000473792827711e-02 1.3619111480315752e-02  2.6958570313715447e-02 -1.6091725011656784e-02 1.4501296756758288e-02  2.5848570160184232e-02 -1.5814338762013089e-02 1.4075449604183271e-02  2.6744242096686400e-02 -1.6165160327792465e-02 1.3541719416831745e-02  2.7158395935874751e-02 -1.6224657929222414e-02 1.4477301710788693e-02  2.6142579166063201e-02 -1.5943418986576394e-02 1.4031227767871680e-02  2.2698671819047191e-02 -1.3565223647263980e-02 1.1995553768336891e-02  2.1115881422726177e-02 -1.2718524095965444e-02 1.1039085267365700e-02  2.2556253440557152e-02 -1.2829293354951166e-02 1.1364050600501836e-02  2.0830583582854719e-02 -1.2322244350141067e-02 1.1158900011046026e-02  2.3041045066598223e-02 -1.3910246453969913e-02 1.1885174346370934e-02  2.1453476372523778e-02 -1.3062026329932421e-02 1.0897158697763584e-02  2.2853880508286781e-02 -1.3178210353629788e-02 1.1135934353252327e-02  2.3413331989329007e-02 -1.4217943620611077e-02 1.1753014345447408e-02  2.1824161646914874e-02 -1.3370560520408088e-02 1.0735545841006749e-02  2.3185699895631268e-02 -1.3491412868485186e-02 1.0900791796825220e-02  2.3807614523242138e-02 -1.4494650722563510e-02 1.1598610844624076e-02  2.3110835593215331e-02 -1.4221440555892046e-02 1.4043568385824868e-02  2.3500387117601426e-02 -1.4552034122392435e-02 1.4174300779490119e-02  2.3891486688197221e-02 -1.4837140311331742e-02 1.4278915379602790e-02  2.4273327025669551e-02 -1.5072054119622142e-02 1.4356987344089498e-02  2.4646468283574967e-02 -1.5258063007191036e-02 1.4409141294505589e-02  2.5012326798294311e-02 -1.5395376479955383e-02 1.4433253494041202e-02  2.5372765361208156e-02 -1.5482321014846284e-02 1.4426494963909138e-02  2.0867068275387347e-02 -1.2804557202597993e-02 1.1629569714821045e-02  2.2404579790127398e-02 -1.3167825398085715e-02 1.2086916045233256e-02  2.1210386277147924e-02 -1.3160305943555264e-02 1.1627580107892145e-02  2.1582478127542073e-02 -1.3485948043917992e-02 1.1576820205502448e-02  2.1986166111097719e-02 -1.3778317729157894e-02 1.1496129790650719e-02  2.2416963018978171e-02 -1.4040088195195310e-02 1.1391145066069381e-02  2.2220946341653908e-02 -1.3649435356736057e-02 1.0553055813507501e-02  2.2860951805842099e-02 -1.4266894502767059e-02 1.1268472580444892e-02  2.2629271784667768e-02 -1.3901671055343023e-02 1.0353840178165668e-02  2.4203124369800186e-02 -1.4738599696296067e-02 1.1425626675999435e-02  2.3319889506351079e-02 -1.4453841635840351e-02 1.1129078277639242e-02  2.3030934040345199e-02 -1.4119579720524241e-02 1.0140957790491388e-02  2.4592414841524836e-02 -1.4949891322043602e-02 1.1233258510942964e-02  2.4905194022655789e-02 -1.3872807865909767e-02 1.5884799802512652e-02  2.5225602400520904e-02 -1.4183216024489635e-02 1.6134452554919639e-02  2.5539717390254551e-02 -1.4412122282486539e-02 1.6349228859625066e-02  2.5845644732645445e-02 -1.4572515001939004e-02 1.6534208553341263e-02  2.6141457824714623e-02 -1.4670186301077590e-02 1.6693785773824191e-02  2.6425351030931493e-02 -1.4705091582708352e-02 1.6832069445750032e-02  2.6695136877503994e-02 -1.4672015270455776e-02 1.6953171603024900e-02  1.7822422413762390e-02 -1.1945315563324850e-02 1.1490516322630403e-02  1.9497035609763839e-02 -1.2821459059113232e-02 1.2221325933483082e-02  1.8197519340950121e-02 -1.2123452979677769e-02 1.1292156124243322e-02  1.8730040439487925e-02 -1.2356371845189822e-02 1.1459858673083237e-02  2.0013839397584231e-02 -1.3072548586425993e-02 1.2376765274091608e-02  1.8413702996868866e-02 -1.2152152140694088e-02 1.1676893835751797e-02  1.9275445444809081e-02 -1.2581367463280591e-02 1.1576745161820837e-02  2.0542195141393188e-02 -1.3311943931183873e-02 1.2481286640186207e-02  1.9012106805218622e-02 -1.2355226082532788e-02 1.1817235839660697e-02  1.9837515100738907e-02 -1.2793451537694624e-02 1.1656602987036430e-02  2.1081732308957095e-02 -1.3528413086690451e-02 1.2550374110774160e-02  1.9615904584772473e-02 -1.2545665640702074e-02 1.1924672654693179e-02  2.0408676952503362e-02 -1.2981019338349954e-02 1.1715625186318013e-02  2.1616047438588300e-02 -1.3708332983955636e-02 1.2600754089818917e-02  2.0217268701192601e-02 -1.2710131570229630e-02 1.2016170669359045e-02  2.0988405449045067e-02 -1.3135055530896157e-02 1.1763767555798671e-02  2.2157396582992869e-02 -1.3848887901065877e-02 1.2633517675637565e-02  2.0827631476008926e-02 -1.2843792241890504e-02 1.2096654381964245e-02  2.1588055068992987e-02 -1.3255753411743449e-02 1.1803650514346812e-02  2.2721144910352650e-02 -1.3947620591426350e-02 1.2648169782087075e-02  2.1461623539692783e-02 -1.2944354252565803e-02 1.2168828873908367e-02  2.6488147991408299e-02 -1.4813940514484147e-02 1.3744726606813026e-02  2.6708450023174114e-02 -1.5185795774004588e-02 1.3789874019644099e-02  2.6932267126334532e-02 -1.5510797078317992e-02 1.3821767678023350e-02  2.7156684369108917e-02 -1.5791332975156697e-02 1.3835657982573277e-02  2.7376210101781890e-02 -1.6031316718292866e-02 1.3828704480995642e-02  2.7584608078428902e-02 -1.6235206590773425e-02 1.3797785195447677e-02  2.7775619307577375e-02 -1.6410115347787173e-02 1.3739450686882376e-02  1.8911742198208268e-02 -1.2514672275275602e-02 1.2473212402123094e-02  1.9503747201943884e-02 -1.2738674223998367e-02 1.2652897595107767e-02  2.0105766755455876e-02 -1.2948446187215449e-02 1.2787594002592119e-02  2.0693761247999085e-02 -1.3130947685483299e-02 1.2896109801205998e-02  2.1273418208049975e-02 -1.3278119246872310e-02 1.2986819825686958e-02  2.1860135850695923e-02 -1.3387810481852908e-02 1.3061040131818937e-02  2.2471930056662408e-02 -1.3456385899695450e-02 1.3118065687178647e-02  1.2572711606543538e-02 -7.3699616367671550e-03 9.3678828111234385e-03  1.2882982335533789e-02 -7.2217315310126023e-03 9.9022276556649125e-03  1.4069457544714715e-02 -8.5421440877899366e-03 1.0657406145007105e-02  1.4971407901682872e-02 -8.5633421609424189e-03 1.0835999012512408e-02  1.3829573847939728e-02 -7.2159848484485293e-03 1.0041832790825982e-02  1.3460624577160065e-02 -7.3797924035172210e-03 9.5330235163372801e-03  1.5830827631814051e-02 -8.6149706322293639e-03 1.0996119019428131e-02  1.4705276971829889e-02 -7.2505437294609594e-03 1.0196770987353507e-02  1.4301853638550341e-02 -7.4372106682705436e-03 9.7010503979755754e-03  1.6652741724843094e-02 -8.6789893405647012e-03 1.1162258033466030e-02  1.5543428669364093e-02 -7.3077105988425947e-03 1.0370938573493233e-02  1.5109775831893364e-02 -7.5191741597610768e-03 9.8845243481023495e-03  1.7471030934517053e-02 -8.7478198606949064e-03 1.1332796390139600e-02  1.6383019508517203e-02 -7.3822130365669252e-03 1.0558936940827286e-02  1.5914911318690494e-02 -7.6191060260869499e-03 1.0081388037004618e-02  1.8320158763668128e-02 -8.8141973674112015e-03 1.1504273814821579e-02  1.7262831070108970e-02 -7.4676625004900703e-03 1.0757629841514788e-02  1.6752275031604445e-02 -7.7350531866470212e-03 1.0291059021091759e-02  1.9196789247031627e-02 -8.8646746407821057e-03 1.1698171128362739e-02  1.8188447969601503e-02 -7.5388410594992928e-03 1.0988767328592806e-02  1.7618850069565015e-02 -7.8563190345084018e-03 1.0539849648644014e-02  2.2729524693851748e-02 -1.3974262927588223e-02 1.4532115595410532e-02  2.3174368907440540e-02 -1.4287153410079745e-02 1.4704127956731393e-02  2.3604112530359964e-02 -1.4543782760874986e-02 1.4849503412307509e-02  2.4019341988875884e-02 -1.4744874525290894e-02 1.4971284375503895e-02  2.4423908153793542e-02 -1.4893549431903109e-02 1.5068830367830586e-02  2.4820568956958014e-02 -1.4988547694557148e-02 1.5140308258706128e-02  2.5212448713951362e-02 -1.5026940744126532e-02 1.5182357936266029e-02  2.5767989095511361e-02 -1.4482431209804624e-02 1.3239429748775768e-02  2.6022343021084630e-02 -1.4871330346082394e-02 1.3205307500425867e-02  2.6296275187559802e-02 -1.5218260972738547e-02 1.3161085687021189e-02  2.6578195705009532e-02 -1.5521378917099347e-02 1.3103111753955933e-02  2.6858259102435503e-02 -1.5785869706381725e-02 1.3027991918487126e-02  2.7129862001707146e-02 -1.6017067347414329e-02 1.2932047453881230e-02  2.7385159673434162e-02 -1.6219751886536082e-02 1.2811000809850218e-02  1.4445097567010430e-02 -8.4204954959328244e-03 1.1223642558246715e-02  1.5403310287741072e-02 -8.4411859478622578e-03 1.1399674498617495e-02  1.6304317402620051e-02 -8.4795246698114758e-03 1.1567457760492873e-02  1.7167395010855995e-02 -8.5236358931324047e-03 1.1741452216157024e-02  1.8028251705922434e-02 -8.5681082498972692e-03 1.1916705974900426e-02  1.8918264703235193e-02 -8.6072602442617240e-03 1.2086327394514589e-02  1.9826030235811396e-02 -8.6232783693291626e-03 1.2268132507499212e-02  2.5422549341493662e-02 -1.2736017580728939e-02 1.6768629684688261e-02  2.7149573980602512e-02 -1.3089875644310757e-02 1.6691044327296865e-02  2.5781697387745117e-02 -1.3247969390366991e-02 1.6545226427464182e-02  2.6061019642701636e-02 -1.3493969713392489e-02 1.6888318236811296e-02  2.7284183926750680e-02 -1.3328936156052781e-02 1.7052410778952563e-02  2.5752049497027758e-02 -1.2935124181992762e-02 1.7141689583591555e-02  2.6331733057168027e-02 -1.3655536212674048e-02 1.7174325370758720e-02  2.7439556700662896e-02 -1.3484325077323896e-02 1.7356771723627207e-02  2.6065847462764316e-02 -1.3047916842579983e-02 1.7449567980942274e-02  2.6595997019042174e-02 -1.3745663798348262e-02 1.7418351839514921e-02  2.7602578499777656e-02 -1.3570768896984451e-02 1.7618561987021181e-02  2.6368968761901250e-02 -1.3090512866620141e-02 1.7708623937218563e-02  2.6852305912789653e-02 -1.3771581954377556e-02 1.7629472128510727e-02  2.7759653770078871e-02 -1.3597394282463217e-02 1.7846995099156517e-02  2.6663232521322581e-02 -1.3069063214148292e-02 1.7928571306907639e-02  2.7097917940058901e-02 -1.3735274925284714e-02 1.7812512586544430e-02  2.7898244487077853e-02 -1.3566987494328588e-02 1.8046997248168214e-02  2.6948785757646660e-02 -1.2984564794953718e-02 1.8115687856006927e-02  2.7329410818565984e-02 -1.3633520108663194e-02 1.7966273145299329e-02  2.8007599977829863e-02 -1.3478085498376875e-02 1.8220752195685211e-02  2.7225185855937681e-02 -1.2833289179823041e-02 1.8273375036909650e-02  1.7787634690637193e-02 -9.2679557148566873e-03 1.4087472762779229e-02  1.9420114414436983e-02 -9.8183505313467600e-03 1.5108503234206420e-02  1.8691111544824605e-02 -1.0138632314281649e-02 1.4560694647535953e-02  1.9584488334778931e-02 -1.0155488931125535e-02 1.4817817221052383e-02  2.6752574728396612e-02 -1.2534802451029886e-02 1.6926178452341869e-02  2.6935120249213788e-02 -1.2724536787779090e-02 1.7331813809616101e-02  2.7129989403766930e-02 -1.2831029337964123e-02 1.7665306807753429e-02  2.7327810892249747e-02 -1.2868697057956652e-02 1.7945040893761737e-02  2.7518803182587377e-02 -1.2846220507302124e-02 1.8183457595394019e-02  2.7693006408307245e-02 -1.2765863748378960e-02 1.8388153807080577e-02  2.7842191923294925e-02 -1.2626628919099324e-02 1.8564076273245321e-02  2.4009816507945519e-02 -1.4384536187347354e-02 1.4605035620842552e-02  2.4362262168255513e-02 -1.4725521810366883e-02 1.4758233740225552e-02  2.4704974911332393e-02 -1.5004042114689168e-02 1.4886643453845527e-02  2.5039269509870257e-02 -1.5227933914447055e-02 1.4993150717541053e-02  2.5364131100718407e-02 -1.5400144295842928e-02 1.5074836303363733e-02  2.5677823410054670e-02 -1.5520766683439151e-02 1.5128416745494732e-02  2.5977642142114045e-02 -1.5587601755338493e-02 1.5148362548689356e-02  2.7051727690801438e-02 -1.4739141288731546e-02 1.3283901896981453e-02  2.7274163782771199e-02 -1.5119399050264406e-02 1.3267124780353474e-02  2.7501915358518227e-02 -1.5455147762698377e-02 1.3240495764879730e-02  2.7731378527287718e-02 -1.5749803604771961e-02 1.3201345728059114e-02  2.7957965408991460e-02 -1.6008515198739227e-02 1.3146296937144456e-02  2.8176252463259228e-02 -1.6236520648100623e-02 1.3072124866045864e-02  2.8378902455533279e-02 -1.6437352035372239e-02 1.2975454537098585e-02  2.6561155119203771e-02 -1.4986494779241478e-02 1.5249178476727845e-02  2.7343750598871057e-02 -1.4791539957747107e-02 1.5648983487374066e-02  2.7472887667953961e-02 -1.5054084803254810e-02 1.5830333406507208e-02  2.6747310045845730e-02 -1.5264306254552551e-02 1.5401212563750339e-02  2.7610706751559490e-02 -1.5261672859029497e-02 1.5990412476025222e-02  2.6935586508444329e-02 -1.5488059687858189e-02 1.5531746225173487e-02  2.7742424217817682e-02 -1.5418203686169939e-02 1.6130013131744322e-02  2.7116881833664428e-02 -1.5661269762328064e-02 1.5639772864708718e-02  2.7853090856218204e-02 -1.5523398186886221e-02 1.6248708063548317e-02  2.7281672948022483e-02 -1.5784480774496779e-02 1.5722652544317126e-02  2.7926751461089853e-02 -1.5571867960694067e-02 1.6344200898716493e-02  2.7420776717649718e-02 -1.5855565290965996e-02 1.5774965055494590e-02  2.0267607654539738e-02 -1.0669094666593975e-02 1.5449608653000364e-02  2.1082208265959541e-02 -1.0694151736467797e-02 1.5744104745310943e-02  1.1274240191055170e-02 -6.1168077218177663e-03 8.2081189353823726e-03  1.2123839759969586e-02 -6.1353710279485590e-03 8.3534718410377042e-03  1.2931656500771658e-02 -6.2073030979348225e-03 8.5303583633892944e-03  1.3709774940419289e-02 -6.3161681207687991e-03 8.7320404122564112e-03  1.4486593892155366e-02 -6.4555522150745717e-03 8.9563722785714513e-03  1.5288528644102666e-02 -6.6263985068381204e-03 9.2067721180472614e-03  1.6124540662640911e-02 -6.8369769806084849e-03 9.4964791208116944e-03  1.7252659056200870e-02 -9.6537672959643508e-03 1.3578913301396043e-02  2.4722524569985277e-02 -1.4432158313882976e-02 1.4981313902343569e-02  2.5025428903205110e-02 -1.4771677819903040e-02 1.5152158674210032e-02  2.5324780227762436e-02 -1.5045886388158758e-02 1.5302331303998034e-02  2.5618365992649696e-02 -1.5262885681966418e-02 1.5429549286980978e-02  2.5902459800023037e-02 -1.5425504677480630e-02 1.5532583971710614e-02  2.6173457124535157e-02 -1.5534005816258309e-02 1.5608971744656617e-02  2.6426986609034864e-02 -1.5585703111417949e-02 1.5654284591827383e-02  2.0353630317798115e-02 -1.1582647390258225e-02 1.5149541182998206e-02  2.1082690056630569e-02 -1.1453713796260952e-02 1.5666330646190274e-02  2.2532044253367335e-02 -1.2200352123200718e-02 1.6094529643313957e-02  2.3141352013477012e-02 -1.2342580513453483e-02 1.6422700920209046e-02  2.1817052198729980e-02 -1.1522124371443157e-02 1.5974141548213510e-02  2.1110935060265228e-02 -1.1681421780417121e-02 1.5427226218297648e-02  2.3701708339045693e-02 -1.2417742959532857e-02 1.6693482392864056e-02  2.2483744767370955e-02 -1.1551507686996801e-02 1.6229924831234741e-02  2.1814688378154413e-02 -1.1743813769288923e-02 1.5656359582418174e-02  2.4231951830525223e-02 -1.2433651130395662e-02 1.6921604868337398e-02  2.3111301683917260e-02 -1.1531219258864371e-02 1.6445927130018637e-02  2.2480614979409650e-02 -1.1760803372346737e-02 1.5852602893859497e-02  2.4748145637945310e-02 -1.2391233015879386e-02 1.7113931277319468e-02  2.3723939582452818e-02 -1.1460516739509210e-02 1.6626778616402063e-02  2.3132781144706037e-02 -1.1729979404908634e-02 1.6019170630905522e-02  2.5262846912056762e-02 -1.2289098363166944e-02 1.7274473881704201e-02  2.4342423288334060e-02 -1.1337104408392196e-02 1.6775100565042275e-02  2.3791609138225991e-02 -1.1648476130226090e-02 1.6157967420474602e-02  2.5785608599696360e-02 -1.2126412496073640e-02 1.7404687915188906e-02  2.4986869023363629e-02 -1.1157347445766554e-02 1.6888526739125095e-02  2.4477319899