<?xml version="1.0"?>
<VTKFile type="UnstructuredGrid"  version="0.1"  >
<UnstructuredGrid>
<Piece  NumberOfPoints="947" NumberOfCells="4033">
<Points>
<DataArray  type="Float64"  NumberOfComponents="3"  format="ascii">1.673765618126753 1.230583013861255 3.183299116454844  1.806625921232003 1.286514194879369 3.257684410748449  1.669401492717014 1.338317257291405 3.29055867394322  1.662402925683746 1.292543891188933 3.337504052458977  1.801017227293424 1.239854170327382 3.30387334021089  1.666499497442357 1.181058729846336 3.228565552319791  1.795681012570272 1.19317891076193 3.350173627202408  1.659558618642207 1.131412815469047 3.273959798499915  1.655752942832333 1.246706092743224 3.384635203284983  1.790470656685324 1.14644154405486 3.396574108254896  1.652735586588676 1.081640578340563 3.319500773429234  1.649243394865026 1.200773152419008 3.431907278932852  1.785263198020852 1.099648221961123 3.443051269774795  1.64589130442134 1.031781540956966 3.365174943197604  1.642698055113796 1.154742768705411 3.479281717351436  1.638871790825146 0.9818537745834625 3.410942785990574  1.779922453017734 1.052783182679347 3.489584288467491  1.635983984168055 1.108608891277764 3.52673021501411  1.631589647914711 0.9318677420857395 3.456786438701871  1.774332927845649 1.005845739658477 3.536171505417685  1.629006274732332 1.062388413715976 3.574224726019928  3.468950506189825 0.581140988175765 2.807258238499981  3.346915821363121 0.5372907205274948 2.758713401790215  3.350535924438287 0.6201925860512225 2.918629191040643  3.340883402761118 0.5953598670357796 2.734980830220038  2.464427290307366 0.8845452242668055 2.759574170687529  2.496057106027939 0.8262040975745502 2.609958187827789  2.601195931624277 0.863141283852741 2.696746740632916  2.602840506098508 0.8001076333739294 2.724954297400782  2.493622531639394 0.7584985289477879 2.631522307502063  2.464738984654654 0.821783537675475 2.789312995232091  2.604464520434309 0.7370592959129829 2.753151934670678  2.491065887017456 0.6907858146842567 2.653065774828435  2.465020264416419 0.7590122382040148 2.819037219101902  2.606057993320606 0.6740078690058939 2.781360364396897  2.488464877550912 0.6230805735027891 2.674615521817998  2.465280515275175 0.6962453577784562 2.848766937499983  2.607629246218214 0.6109630557330019 2.809597861364439  2.485862443258697 0.5553888751178118 2.696195737618513  2.465522991590057 0.6334908841587803 2.878525040531466  2.609188179432114 0.5479293832075551 2.837881060789793  2.48330037883466 0.4877131253373376 2.717822794836547  2.465749405631831 0.5707565157056538 2.908328937540154  2.610740164400102 0.484913595150725 2.866228618280916  2.480838242611549 0.4200406837713216 2.739492532440343  2.465968205041612 0.5080433739339828 2.938191709144446  3.183855021982071 0.9266916966011867 2.728975185596856  3.328980118271651 0.9521439490552337 2.762453947971372  3.239595916759268 1.002106012142572 2.869780049231171  3.242634703182631 0.9484002630190136 2.898292522677149  3.189386137089473 0.8706620167084802 2.757012037780792  3.347039831482192 0.6754069919168225 2.892629007199851  3.211446475162366 0.6468850656667584 2.869092265828673  3.254523002651907 0.7338816496550165 3.012227239516346  3.251601300209731 0.787467057677252 2.983757847202368  3.205991414791407 0.7027836448635859 2.841069620471582  3.21676944213806 0.5910254165233325 2.897124200530571  3.257389477376745 0.6803333898725057 3.040686775433139  3.249870246320647 0.9719144654305467 3.063548501623789  3.113232870433986 0.9410834753000441 3.023750263422675  3.116741623945122 1.005870016728639 3.13699799320543  3.11044995665593 0.9941347482730086 2.993869305517189  3.118677539236442 0.9537451500313532 3.167275811608131  3.252207626418506 0.9196793074367959 3.09250719334383  3.115995800234012 0.8880590243216396 3.053622931827576  3.120591502519848 0.9016425744719223 3.19754341266704  3.259076986023708 0.7631062938184803 3.179308910852404  3.124072895171965 0.7291285643152072 3.143193469611817  3.124326101511409 0.7974774250651793 3.25802353414539  3.121428741313743 0.7820841059728256 3.113344276422415  2.345956861158401 0.8495064619315805 2.650415434162905  2.354592763310556 0.8120489881632926 2.50859234572882  2.347599326058753 0.7411137446534746 2.522001958754096  2.341325491245848 0.7815777838749075 2.671215010197756  2.340473763226276 0.6701897359656723 2.535341307579788  2.336579830838619 0.7136444698881814 2.691980823935202  2.33329694089687 0.5992791067605077 2.548672152054594  2.33179736352448 0.6457107111208675 2.712748269549874  2.326127478844668 0.5283829836149809 2.562029448891714  2.327018352647986 0.5777830397781091 2.733544463798951  2.319014282640048 0.4575025271591837 2.575438312799059  2.322276475944568 0.5098669032320857 2.754383763973315  2.311999300089314 0.3866401489002713 2.588920848044914  2.317618911290827 0.4419644686780312 2.775264390596576  3.362829495366894 0.7183853534825824 3.086142320256238  2.723115178096885 0.9803927681072895 2.895117156167746  2.863514903613703 1.002446434609517 2.913766188948822  2.746451127153282 1.049929972284488 3.002604641026582  2.749587471850379 0.9967491881320438 3.036922721906016  2.867666800244322 0.948559109771599 2.946809888936306  2.727101770937189 0.925613225712965 2.929755674102609  2.752766395047187 0.9435896219656885 3.071240719007382  2.87184013248922 0.8946930488090021 2.979842579570769  2.731118870800243 0.8708407155065867 2.96438270084754  2.755946557151325 0.8904486294135141 3.105554060764085  2.876008784564569 0.8408482087728077 3.012865906043638  2.735134660449309 0.8160799525892792 2.999005309172716  2.759098239064765 0.8373267083277642 3.139867885509328  2.880147155846434 0.7870259673119198 3.045887721449827  2.739117896457469 0.7613354705847015 3.03363541773695  2.762185523798999 0.7842246367824547 3.174191348958709  2.884224983766686 0.7332312079112457 3.07892045396826  2.743034348716238 0.7066103533984569 3.068292233680432  2.765146882954334 0.7311342535008521 3.208538725204338  2.888191613949323 0.6794691418106154 3.11198407898328  2.746843686028298 0.651908409704435 3.103009675669302  3.309510379629804 0.8863836409368193 2.616154815527406  3.334688177644538 0.6534862464869524 2.711227281879887  3.096356868997941 0.976689958390987 2.840965746300022  3.100613376175173 0.9222437385216127 2.871060575868273  3.194936373316584 0.8146721391562888 2.785039328749702  3.104869132035989 0.8678389876880479 2.901138588183117  3.24564902943293 0.8947284430644704 2.926789281089172  3.200478556964971 0.7587125935941077 2.813056172949324  3.109107063827086 0.8134639479200562 2.931205030822295  3.248639770488599 0.841084093036562 2.95527783227224  3.113313945892696 0.7591206895908128 2.961263465035691  3.117469679604785 0.7048177954144019 2.991320192795811  3.121536745339806 0.6505579434954553 3.02138408283312  1.816067130200196 1.406082895708077 3.377752946785149  1.809635120893696 1.361833460464755 3.424379350179376  1.80346948276188 1.317616823290655 3.471169738326065  1.797416119459995 1.27338322232787 3.5180469956569  1.791347815932083 1.229090143764105 3.564966867482813  1.785145039345866 1.184698260041744 3.611891868997771  1.778701950444462 1.140184864415543 3.658812534444151  2.872640169517073 1.216911183461523 3.253351167909653  3.001581362380984 1.254291098760677 3.313019411802361  2.863304591131623 1.306267655617999 3.379428503428537  2.861447841211686 1.256989490944725 3.415966572781735  3.001352148538057 1.204093664926773 3.347299358635101  2.871911659669177 1.166204545710487 3.287603458439603  2.871176034950775 1.115525556181248 3.321870152659589  3.001128391907156 1.153927366377079 3.381598723539069  2.85959967544522 1.207752106794345 3.452534729661386  3.000903213370585 1.103785984023986 3.415899089235448  2.870434117622159 1.064871347496549 3.356139508662796  2.857755378213655 1.158541554491886 3.489111137738156  2.869679336899937 1.014230066004291 3.390400608506521  3.000669758104492 1.05366040820164 3.450180356280429  2.85590614621582 1.109339495396477 3.525672264792143  2.868908793709021 0.9635914363952651 3.424637213231925  3.00042197707139 1.0035322139609 3.484425885171725  2.854043605238329 1.06012841495105 3.562191159060812  2.868128419243529 0.9129392902024993 3.458831817637995  3.000158489748403 0.9533825718533484 3.518622590839017  2.852167015477542 1.010885014425284 3.598645151853124  1.522508176276703 1.214278310423969 3.238046623903276  1.513473929544668 1.164675713235117 3.283472629148349  1.504554132291245 1.114912606499497 3.329097876518894  1.495553358164893 1.065021566140639 3.37490455049004  1.486307574816989 1.015014076178417 3.420853940818179  1.476713760363399 0.9649167323660324 3.4669417974438  3.001412725514655 1.166275064619976 3.174260946872748  2.985598736318719 1.087946913813319 3.046042527471699  3.112827387255726 1.110195358181116 3.07642915338258  2.987473773058346 1.035250985693702 3.077168345020187  3.002292606628164 1.11476694897047 3.206252565109342  3.114789591951417 1.05802057711248 3.10671423296037  2.989334848212833 0.9825869921684898 3.108289640566487  3.003166757840309 1.063283910461533 3.238250048084628  2.991177890998046 0.9299479737488672 3.139406359857039  3.004030921437974 1.011823785725633 3.270247472185257  2.992994413118049 0.8773328580863894 3.170516300033023  3.004876973233251 0.9603797285506863 3.302234836379471  3.122476374307003 0.8495566650382377 3.227794342457984  2.994777274107237 0.8247381582078821 3.201617697643921  3.00569764597065 0.9089430835851633 3.334199932917025  2.996527730148041 0.7721638401118343 3.232703108696408  3.00649044017869 0.8574981935507969 3.36613293648969  3.107656943876549 1.047208052728156 2.963983748776449  3.118731330681721 0.835059896707818 3.083487631378221  2.625963093452346 1.032548785896838 2.987521747492577  2.628628705966782 0.9788849499224272 3.023419893604838  2.631329371284882 0.9252311930071382 3.059316967707101  2.634030037564149 0.87158860469632 3.095211864971495  2.636701448486388 0.8179611674628949 3.1311157
[...]
<PointData  Vectors="f_16"> 
<DataArray  type="Float64"  Name="f_16"  NumberOfComponents="3" format="ascii">8.8185539236334251e-02 -1.6845892141214232e-02 5.9120702230079127e-03  8.6742979774688478e-02 -1.7904999540335371e-02 6.6180994943043081e-03  8.8423551677385206e-02 -1.6194048041613573e-02 6.0743270978367162e-03  8.7566724959613346e-02 -1.6306828792939008e-02 6.3685997151477968e-03  8.5962339092410800e-02 -1.8050093257912840e-02 6.8956434230537751e-03  8.7292995278948599e-02 -1.7031411642322834e-02 6.1795204722801204e-03  8.5182507886876577e-02 -1.8193423442660131e-02 7.1038377712305360e-03  8.6411376161281014e-02 -1.7193333236858503e-02 6.3638769592773087e-03  8.6714932554179031e-02 -1.6423390497029119e-02 6.5960999833010181e-03  8.4413739402129498e-02 -1.8321564393896966e-02 7.2616963626170386e-03  8.5549875567794614e-02 -1.7325807525744263e-02 6.4909441273300981e-03  8.5879729047652550e-02 -1.6530039231548228e-02 6.7761921960656302e-03  8.3665579461949399e-02 -1.8423519981469971e-02 7.3834035465678571e-03  8.4712096293393768e-02 -1.7422788111349636e-02 6.5761016433630737e-03  8.5066534241363442e-02 -1.6613662767593258e-02 6.9237086284934680e-03  8.3901362654638226e-02 -1.7476027009344159e-02 6.6276505017128879e-03  8.2947005093490983e-02 -1.8489974195174324e-02 7.4793679256386679e-03  8.4279471266762884e-02 -1.6660055243069440e-02 7.0487060301342172e-03  8.3121332481833135e-02 -1.7475394580354894e-02 6.6464454758611334e-03  8.2266915409324515e-02 -1.8505968500907313e-02 7.5562380591930227e-03  8.3525133708374277e-02 -1.6652499418956895e-02 7.1572334367362512e-03  7.2655763532528686e-02 -2.4039579663585900e-02 7.1693522481178669e-03  7.3648458382035903e-02 -2.4111959830350138e-02 6.4861480252117838e-03  7.3134378987795914e-02 -2.4828588142545585e-02 7.5763706454398056e-03  7.3464902676427052e-02 -2.3846284545016149e-02 6.7635887649751371e-03  7.9640538707730732e-02 -2.2967211648099544e-02 6.4689949472734373e-03  7.9539454868693252e-02 -2.2692007657179308e-02 5.6186963622404957e-03  7.8507794514355453e-02 -2.3191897072918077e-02 6.4786295590378642e-03  7.8299184377208703e-02 -2.3533757818804124e-02 6.2974910893045391e-03  7.9221857724094583e-02 -2.3001454967292608e-02 5.3978137651170119e-03  7.9331324676161358e-02 -2.3323494873092553e-02 6.3243387505748355e-03  7.8070128110323378e-02 -2.3831623046014504e-02 6.1067298372497018e-03  7.8908584254858236e-02 -2.3254742036573139e-02 5.1647676132069390e-03  7.9006476407242843e-02 -2.3619196679474250e-02 6.1604567870693471e-03  7.7836944497343866e-02 -2.4089606126511030e-02 5.8951282189856694e-03  7.8597769199988107e-02 -2.3464114207530105e-02 4.9151297934746088e-03  7.8681238699862238e-02 -2.3870028317651112e-02 5.9712018141247205e-03  7.7610066281697629e-02 -2.4314999776181030e-02 5.6576095332983457e-03  7.8292789404377658e-02 -2.3637106085906717e-02 4.6445845934325013e-03  7.8364860492393731e-02 -2.4085153408135766e-02 5.7518661171729862e-03  7.7396597497477293e-02 -2.4513729099339798e-02 5.3898005539391395e-03  7.7995667906111496e-02 -2.3778826236024800e-02 4.3499095476421112e-03  7.8063840530859005e-02 -2.4271574661468780e-02 5.4983146720267865e-03  7.7201567663511050e-02 -2.4690699114059866e-02 5.0864711429630905e-03  7.7705260742335358e-02 -2.3892392960147089e-02 4.0262479062786634e-03  7.7783142581103221e-02 -2.4433574482051582e-02 5.2079432547289016e-03  7.3716145582680914e-02 -2.3265014290336481e-02 8.5249811914894016e-03  7.2630021909289882e-02 -2.3110474610206301e-02 9.1900640735114968e-03  7.3238388022806147e-02 -2.3688890930515002e-02 9.7231263822631711e-03  7.3258154571727754e-02 -2.4013198948643056e-02 9.4950584806323297e-03  7.3785100034867226e-02 -2.3567823185037459e-02 8.2880081372971627e-03  7.3022707750088539e-02 -2.4540435775971911e-02 7.8670705500878714e-03  7.3980616271793698e-02 -2.4689034905676834e-02 7.3111810800237037e-03  7.3331387102872694e-02 -2.5183337781004272e-02 8.5535634916514679e-03  7.3301642663580607e-02 -2.4903996583627228e-02 8.8065136818682235e-03  7.3917433598124374e-02 -2.4418102139656058e-02 7.5740088156190958e-03  7.4079704123761039e-02 -2.4960272341137627e-02 7.0254858375504454e-03  7.3381296791480949e-02 -2.5462717193940648e-02 8.2802154435778867e-03  7.3020332788092487e-02 -2.4845180386339979e-02 1.0349386383712232e-02  7.4101507730662236e-02 -2.4774288216616491e-02 9.6299710894274700e-03  7.3883687117106342e-02 -2.5104803535656042e-02 1.0487583316856380e-02  7.4156429802071461e-02 -2.4460826309858984e-02 9.8078289225033734e-03  7.3786488059346456e-02 -2.5393490798805686e-02 1.0325351361818811e-02  7.2984204245721399e-02 -2.5143399475656452e-02 1.0144754852899287e-02  7.4045715359962849e-02 -2.5067976482123944e-02 9.4424234705397254e-03  7.3694908972563811e-02 -2.5662026370988224e-02 1.0147864779551406e-02  7.2924598585832848e-02 -2.5961232611343060e-02 9.4396128950798956e-03  7.3939721036575784e-02 -2.5858070598663303e-02 8.7714477685512555e-03  7.3546996719639560e-02 -2.6146264164397953e-02 9.7310819402278408e-03  7.3957826537456611e-02 -2.5607444892765108e-02 9.0185118481036549e-03  8.0867702810721406e-02 -2.2207366268933836e-02 5.5094460590491201e-03  8.0978920546396202e-02 -2.1806909909648398e-02 4.7203021419532998e-03  8.0531356379415858e-02 -2.2058256378781154e-02 4.4512276838505034e-03  8.0440135020917361e-02 -2.2513817948813259e-02 5.2940895882973736e-03  8.0092759752244905e-02 -2.2254962341978126e-02 4.1852954017309327e-03  8.0016619814532064e-02 -2.2761702878814676e-02 5.0705541139606314e-03  7.9661724065060321e-02 -2.2403965915854453e-02 3.9119416381653265e-03  7.9597617358644110e-02 -2.2957768390508570e-02 4.8301974360862605e-03  7.9239137540233567e-02 -2.2512336351472931e-02 3.6240664262927945e-03  7.9186510346779010e-02 -2.3111428421730348e-02 4.5674421770230747e-03  7.8825865631579090e-02 -2.2586334208506580e-02 3.3160403632571380e-03  7.8785768965848157e-02 -2.3230011284256127e-02 4.2790614532713508e-03  7.8423445524474528e-02 -2.2632675333161094e-02 2.9826182001883995e-03  7.8395493551902784e-02 -2.3319226851766406e-02 3.9620441471362603e-03  7.2532122989247536e-02 -2.5548233891517336e-02 8.9336069173903618e-03  7.7357596562774106e-02 -2.3793910358757074e-02 8.1990733489590677e-03  7.6187269567457930e-02 -2.3975181887103902e-02 8.8022714246996855e-03  7.7148301794300947e-02 -2.3977258867469993e-02 8.9859502952036319e-03  7.6968551636887622e-02 -2.4321617065298132e-02 8.9281888795688172e-03  7.6083871492228505e-02 -2.4320231704596944e-02 8.6828450304777607e-03  7.7203351195012052e-02 -2.4151093104447199e-02 8.1082030682688138e-03  7.6769683929148180e-02 -2.4634246328095435e-02 8.8472002315416690e-03  7.5963707027532940e-02 -2.4638948291562556e-02 8.5511391724526625e-03  7.7026962643828786e-02 -2.4472293795128199e-02 7.9979989562206488e-03  7.6567344068845425e-02 -2.4918813880577574e-02 8.7416630311244695e-03  7.5838469589704721e-02 -2.4932661468639768e-02 8.4011895544442612e-03  7.6844195269005544e-02 -2.4763679773510301e-02 7.8645435882053714e-03  7.6373024543186563e-02 -2.5177603293976534e-02 8.6093107633729848e-03  7.5719577556531886e-02 -2.5203975219734397e-02 8.2280720479377643e-03  7.6668476397688659e-02 -2.5029150260765246e-02 7.7035503699338604e-03  7.6198140326137434e-02 -2.5411797936835699e-02 8.4472865531004908e-03  7.5618333987549677e-02 -2.5455988667756446e-02 8.0265388434624021e-03  7.6511941668675601e-02 -2.5271611235127767e-02 7.5091269900608012e-03  7.6057018996911432e-02 -2.5619575987274566e-02 8.2517039774608163e-03  7.5548060015923568e-02 -2.5692272497995969e-02 7.7900970088078392e-03  7.6386788484008789e-02 -2.5492024602929833e-02 7.2710869456118488e-03  7.2822756515200454e-02 -2.2577947999539428e-02 8.0787531537822831e-03  7.3324436688682798e-02 -2.3588497898561198e-02 7.0342258550369413e-03  7.4351662647936412e-02 -2.3755488615174385e-02 9.0539430535345033e-03  7.4350275907746496e-02 -2.4087153614632713e-02 8.8567509271163837e-03  7.3832912374642623e-02 -2.3859720117047928e-02 8.0560489847770825e-03  7.4335237142443514e-02 -2.4397574780026198e-02 8.6576816529317716e-03  7.3272179089008349e-02 -2.4322183064422159e-02 9.2710352872230582e-03  7.3872701355559955e-02 -2.4142628632322759e-02 7.8204404250274452e-03  7.4315948952400429e-02 -2.4691911262253976e-02 8.4503131755538485e-03  7.3284356893298999e-02 -2.4618184544013055e-02 9.0438207073192164e-03  7.4302339322590227e-02 -2.4972950794455537e-02 8.2282196225882034e-03  7.4304382599960653e-02 -2.5243608874298534e-02 7.9856334367236909e-03  7.4331536070705653e-02 -2.5505777294174258e-02 7.7157198584592787e-03  8.6775552166690487e-02 -1.7226801410112492e-02 6.8870268334794973e-03  8.5992697994757547e-02 -1.7297448589734542e-02 7.1611919026092008e-03  8.5214436575256625e-02 -1.7387452260607009e-02 7.3849738450558868e-03  8.4448224916353329e-02 -1.7479642608425189e-02 7.5710403057819790e-03  8.3699943181084716e-02 -1.7558131817442757e-02 7.7344882351873404e-03  8.2976082530339390e-02 -1.7608420168376347e-02 7.8888770883763591e-03  8.2286780188994976e-02 -1.7610046623209086e-02 8.0443682014194606e-03  7.5955759266596340e-02 -2.4408543332481623e-02 1.1026832392179584e-02  7.4714603417144018e-02 -2.4737795408195481e-02 1.1904887838236674e-02  7.5856206383428840e-02 -2.4339247055355132e-02 1.1726365615044882e-02  7.5506532669563156e-02 -2.4618927707816787e-02 1.1768409394387775e-02  7.4462035372812860e-02 -2.5055768085047309e-02 1.1885074706343575e-02  7.5683521260811668e-02 -2.4717421940530081e-02 1.1014641004606503e-02  7.5420851905417766e-02 -2.4995431978360051e-02 1.0981758602822422e-02  7.4214228367950150e-02 -2.5338479861659147e-02 1.1842335249012723e-02  7.5169051380823582e-02 -2.4870587470063796e-02 1.1784243598619841e-02  7.3970892619995232e-02 -2.5592124635614583e-02 1.1781095782602178e-02  7.5164247763004829e-02 -2.5245210166411548e-02 1.0927742559728101e-02  7.4839533912197637e-02 -2.5095148492643202e-02 1.1776970215454168e-02  7.4914264307913314e-02 -2.5468767614684730e-02 1.0852478328980713e-02  7.3732887165983502e-02 -2.5819807641740380e-02 1.1701077782489569e-02  7.4515495919126609e-02 -2.5293157043047229e-02 1.1749562173822375e-02  7.4670143192320418e-02 -2.5666930750616566e-02 1.0756668152896111e-02  7.3500001944519666e-02 -2.6022240134294994e-02 1.1602361851999060e-02  7.4195042154519664e-02 -2.5464268151710209e-02 1.1703813797829799e-02  7.4429949114915919e-02 -2.5839770844828795e-02 1.0640751652766383e-02  7.3270583318743115e-02 -2.6199405722156593e-02 1.1483285238210995e-02  7.3875827364646734e-02 -2.5606837334791892e-02 1.1641261786668239e-02  8.9005784605387953e-02 -1.5196297953706755e-02 5.5808166815139500e-03  8.8037569633237889e-02 -1.5330477129511551e-02 5.7662125459620947e-03  8.7101490949276272e-02 -1.5440968728800157e-02 5.9018230178643875e-03  8.6188132448639376e-02 -1.5519405249394680e-02 6.0016623858486929e-03  8.5289236692356787e-02 -1.5553429621843291e-02 6.0698372930162161e-03  8.4396153010847963e-02 -1.5524640150764792e-02 6.0998193701527368e-03  7.4910369128073875e-02 -2.4581026581459761e-02 1.1029403740188607e-02  7.5145825402882047e-02 -2.4326351843136050e-02 1.0121565934759246e-02  7.4075728041168881e-02 -2.4452686675708574e-02 1.0781883269996210e-02  7.5026520933399773e-02 -2.4663279031125009e-02 1.0002407357111751e-02  7.4732374874397933e-02 -2.4911852918897963e-02 1.0952107001415480e-02  7.3981649731974367e-02 -2.4792735578078796e-02 1.0638667366408958e-02  7.4904248337659310e-02 -2.4971823866203082e-02 9.8717760316040914e-03  7.4555805403790476e-02 -2.5211368370216231e-02 1.0859911658080600e-02  7.4783353105421016e-02 -2.5256224529283194e-02 9.7261047804735531e-03  7.4382450077289303e-02 -2.5484081926975922e-02 1.0750902185826141e-02  7.4668904400847502e-02 -2.5518918758114642e-02 9.5615987775653187e-03  7.4215357164772219e-02 -2.5732456329122497e-02 1.0623693823980649e-02  7.3613511920894784e-02 -2.5912527233025052e-02 9.9513253663757843e-03  7.4565428938325976e-02 -2.5761601213254791e-02 9.3753558603245409e-03  7.4056600051128380e-02 -2.5957768125644983e-02 1.0476866929436874e-02  7.4475361817782693e-02 -2.5985185685517984e-02 9.1638111005577019e-03  7.3908803466323725e-02 -2.6161059360351215e-02 1.0308591335742839e-02  7.4204423221220006e-02 -2.4124160757876857e-02 9.9818385332203739e-03  7.3995670097636468e-02 -2.5344814470118718e-02 9.2402477109719064e-03  7.8188574221170246e-02 -2.3710378524177945e-02 8.4645546981454364e-03  7.7957308647148213e-02 -2.4061684563840460e-02 8.4332693844098618e-03  7.7708315689377791e-02 -2.4374682299180453e-02 8.3723354140279524e-03  7.7455895251162282e-02 -2.4655657492841286e-02 8.2821423018096564e-03  7.7211918661282464e-02 -2.4907770960178630e-02 8.1607358189310954e-03  7.6987172270391604e-02 -2.5132998025187061e-02 8.0048724570193925e-03  7.6790760768913099e-02 -2.5332118654094429e-02 7.8094837740996063e-03  8.2119882093482935e-02 -2.1291005894470451e-02 4.6836415812254719e-03  8.1574589755966237e-02 -2.1546737755797379e-02 4.4183282029372122e-03  8.1035059860896319e-02 -2.1737755117262000e-02 4.1577407560448431e-03  8.0505818149551489e-02 -2.1876683634373537e-02 3.8897079661719689e-03  7.9988407174896206e-02 -2.1972039736809234e-02 3.6066788273948890e-03  7.9485015158394262e-02 -2.2030429253859948e-02 3.3027880703854354e-03  7.8998883550457255e-02 -2.2058038182027472e-02 2.9736997658911142e-03  7.3321149538772723e-02 -2.5958209366415859e-02 1.1341040943046148e-02  7.3164867295996958e-02 -2.6186857041207334e-02 1.1192643954037754e-02  7.3017165277734442e-02 -2.6392539882085925e-02 1.1024112987611788e-02  7.2560629317290959e-02 -2.6170693463413826e-02 1.2146788069864531e-02  8.4213751800484141e-02 -2.0437682309617559e-02 5.7696704372468422e-03  8.2946420986467997e-02 -2.1356898045484303e-02 6.2985231183753532e-03  8.3713095090138551e-02 -2.0865940193479489e-02 6.5018834244018374e-03  8.3081387755335120e-02 -2.1192955067290808e-02 6.5636493636753983e-03  8.2367047038764823e-02 -2.1711151449515336e-02 6.2879414947123102e-03  8.3513065531224118e-02 -2.0772792101870816e-02 5.7336429597738756e-03  8.2454565693082890e-02 -2.1458948521483150e-02 6.5765958721348437e-03  8.1781924128591366e-02 -2.1992973657800296e-02 6.2375514832132203e-03  8.2817869741441230e-02 -2.1030891363823308e-02 5.6617971102965389e-03  8.1836379015121516e-02 -2.1672285501176770e-02 6.5429419338846441e-03  8.1205085117073264e-02 -2.2219775118769977e-02 6.1495643351260768e-03  8.2134204261360477e-02 -2.1226299960529257e-02 5.5520439572011981e-03  8.1234320153096298e-02 -2.1840657625009113e-02 6.4657029346668511e-03  8.0644019353733526e-02 -2.2402107379000776e-02 6.0225736049128679e-03  8.1467820798886037e-02 -2.1369893780204104e-02 5.4038112161112727e-03  8.0654368475608140e-02 -2.1969961427347647e-02 6.3455153000261744e-03  8.0104618647803105e-02 -2.2547620942101748e-02 5.8533897050734446e-03  8.0823205091720987e-02 -2.1470663707092122e-02 5.2161392200177018e-03  8.0098840196713844e-02 -2.2065492120792028e-02 6.1821716553863582e-03  7.9594929301227926e-02 -2.2659824536298643e-02 5.6361433758639768e-03  8.0199016311221852e-02 -2.1538450460958581e-02 4.9916056405941503e-03  7.8228146357685893e-02 -2.3495809666672723e-02 7.3040976161428406e-03  7.8033421069975059e-02 -2.3853471840159218e-02 7.1914773648128674e-03  7.7817021342408796e-02 -2.4171060486496750e-02 7.0572373944948023e-03  7.7595114563071110e-02 -2.4452355089649290e-02 6.8970085141444159e-03  7.7380399715642825e-02 -2.4702945247998445e-02 6.7066065550579002e-03  7.7182367582239536e-02 -2.4928073308027845e-02 6.4815260843870993e-03  7.7006530702066617e-02 -2.5134938344553125e-02 6.2188013834127429e-03  7.6830430654134418e-02 -2.4068527845881212e-02 1.0977947758880910e-02  7.6478459201079693e-02 -2.4347188776535564e-02 1.1025750233295582e-02  7.6133379870041235e-02 -2.4599463924373403e-02 1.1046556660268764e-02  7.5796113524605413e-02 -2.4825376975556070e-02 1.1042625956339001e-02  7.5465744907139060e-02 -2.5024701616271860e-02 1.1016455877854768e-02  7.5142138966398805e-02 -2.5197021015387198e-02 1.0970868162089387e-02  7.4826824763631852e-02 -2.5343441322436867e-02 1.0910296594677181e-02  7.5181897823721269e-02 -2.4045908771190366e-02 9.3038307276848749e-03  7.5116769217625640e-02 -2.4383993696832078e-02 9.1547131607956390e-03  7.5041438744194722e-02 -2.4698197260882682e-02 8.9964639963655384e-03  7.4963302329203091e-02 -2.4991358085885578e-02 8.8241879740383871e-03  7.4891030504395786e-02 -2.5265504014657863e-02 8.6333510687195119e-03  7.4833624007530297e-02 -2.5522826142504628e-02 8.4195627282112918e-03  7.4799448854985170e-02 -2.5766115880845711e-02 8.1768015578277606e-03  7.4767896812672444e-02 -2.4648057740134947e-02 1.2449918045783354e-02  7.3892225893480948e-02 -2.4934982345010608e-02 1.2664130043957516e-02  7.3796162320441186e-02 -2.4870921478596267e-02 1.3248460264225969e-02  7.4442747766703649e-02 -2.4941361279736642e-02 1.2481876716093382e-02  8.2952310477621305e-02 -2.1280126003934634e-02 5.7930316489811905e-03  8.3144594303713348e-02 -2.0971797518146436e-02 5.1753945907272005e-03  8.2037705532670632e-02 -2.1787204627752969e-02 5.7965798290900792e-03  8.1503837891500411e-02 -2.2124917637596928e-02 5.6564825492228139e-03  8.2509286208461333e-02 -2.1264403021873317e-02 4.9777167302900282e-03  8.2341256473803762e-02 -2.1613308327188684e-02 5.6944949324927137e-03  8.0975260749277828e-02 -2.2387128161896124e-02 5.4949342415577269e-03  8.1895045632063693e-02 -2.1483070374405271e-02 4.7721519043020192e-03  8.1745390063139314e-02 -2.1869051065160277e-02 5.5676305248427357e-03  8.0455450839445691e-02 -2.2593467609287890e-02 5.3076960583603779e-03  8.1291839657186865e-02 -2.1641907537622750e-02 4.5493298693674439e-03  8.1160173803262695e-02 -2.2067292521468242e-02 5.4111952084592912e-03  7.9948284069351977e-02 -2.2755503716329381e-02 5.0898660159205680e-03  8.0700622497722266e-02 -2.1752158225884641e-02 4.3030968668548936e-03  8.0588738839353871e-02 -2.2218820516681417e-02 5.2218276475154805e-03  7.9456845560281431e-02 -2.2882646775458565e-02 4.8378308069410500e-03  8.0123703008042987e-02 -2.1821839753379410e-02 4.0290968152785177e-03  8.0034325567576226e-02 -2.2331830532055716e-02 4.9968636689850876e-03  7.8982478955866658e-02 -2.2983351634910998e-02 4.5513992670310434e-03  7.9561591029180687e-02 -2.1856714775524679e-02 3.7262151086626290e-03  7.9497039738101197e-02 -2.2412434668842116e-02 4.7341464242035471e-03  8.4995881482963595e-02 -1.9881610508495458e-02 6.1552393177565050e-03  8.4267912333783085e-02 -2.0211601491237470e-02 6.2502328430632959e-03  8.3528959476814227e-02 -2.0473902595740417e-02 6.2855413321537155e-03  8.2801035204303819e-02 -2.0680193496015246e-02 6.2695944929339288e-03  8.2094465696560828e-02 -2.0838470197845418e-02 6.2074568338513179e-03  8.1416775302285055e-02 -2.0953762334615739e-02 6.1012130369158032e-03  8.0777143810071339e-02 -2.1028615129504470e-02 5.9511323891459581e-03  7.8133207574030972e-02 -2.3765198039479053e-02 9.1023429672828001e-03  7.7861071624394429e-02 -2.4094765747729917e-02 9.1063925240767694e-03  7.7581390402756661e-02 -2.4391924730448211e-02 9.0800441808847106e-03  7.7302106305236415e-02 -2.4659008872917131e-02 9.0236588069703833e-03  7.7031357349493318e-02 -2.4897886353013265e-02 8.9374521522722523e-03  7.6777166170029679e-02 -2.5109280869760931e-02 8.8208150856311923e-03  7.6546263338542822e-02 -2.5291882642565690e-02 8.6718800566536729e-03  8.4669111720374626e-02 -1.5112535690593846e-02 6.5959449658910558e-03  7.6211075002937056e-02 -2.4291884954438656e-02 1.0137258626646528e-02  7.6009810862853827e-02 -2.4617151277235457e-02 1.0086178082165290e-02  7.5806397679410512e-02 -2.4914703342383170e-02 1.0014801254027038e-02  7.5605355519655318e-02 -2.5185557347383807e-02 9.9219590173072313e-03  7.5411502369281402e-02 -2.5430808330751960e-02 9.8068505698481745e-03  7.5229998291472394e-02 -2.5651394006294639e-02 9.6691939669329378e-03  7.5065944186365446e-02 -2.5848642249774931e-02 9.5106451069202780e-03  7.9098705999414667e-02 -2.3189818385049160e-02 9.7154962912553537e-03  7.8026188142