<?xml version="1.0"?>
<VTKFile type="UnstructuredGrid"  version="0.1"  >
<UnstructuredGrid>
<Piece  NumberOfPoints="955" NumberOfCells="4075">
<Points>
<DataArray  type="Float64"  NumberOfComponents="3"  format="ascii">5.83349320170168 2.396159728010131 4.232392342208047  5.991660867185877 2.365521959297128 4.230851136380902  5.954891390459629 2.511707350870121 4.259667658048257  5.95020889244117 2.501020180564715 4.342121305910991  5.98777254567937 2.342692910521508 4.309751047119654  5.831423365676634 2.377399662591351 4.312785350847534  5.945453596487776 2.490351016458935 4.424467096895794  5.98379693808737 2.31988494324799 4.388564596982912  5.829284845680042 2.358661909129329 4.393067542272558  5.940654760372648 2.479658978804046 4.506715615773973  5.979771038716313 2.297078588953686 4.467313158877489  5.827104997729361 2.339917856308037 4.473258726213913  5.935856781069462 2.468938066314953 4.588895952171259  5.97572777316647 2.274266234873029 4.546012510023073  5.824901982272516 2.321168300894866 4.553383073712863  5.822727596870475 2.302390599700626 4.633447796062099  5.971735443623333 2.251424767141494 4.624662560838557  5.9310951690378 2.45818960494154 4.671001083677912  5.820677696819946 2.283563739265053 4.713433169059269  5.967885816561587 2.228539138217999 4.703251852502311  5.926455940329285 2.447378319462262 4.753046056452628  5.46416211743795 2.745381363019189 4.248333246495232  5.445185818525446 2.583683449095705 4.262065620326183  5.577223024224714 2.615426168780923 4.261161341783235  5.577223809725 2.618916380294633 4.346028667088579  5.444124763210901 2.584099983043564 4.346994615351176  5.462190897623173 2.760343159600615 4.332259774689946  5.460129636970285 2.775265876016151 4.416009361948674  5.44299127908713 2.584521435166526 4.431728621824349  5.577131977078432 2.622407515446983 4.430702311519294  5.458015081390811 2.790116899844765 4.499594853850535  5.4418149906305 2.584902252258735 4.516302721522528  5.576997338517426 2.625859480615969 4.515223540682702  5.455892326288686 2.804895899880462 4.583061817719599  5.440645391814512 2.58523960664923 4.600761864375573  5.576860311569167 2.629265198859982 4.599637843110506  5.576750469346861 2.632640727124401 4.683985206098123  5.439505318622793 2.585547272194503 4.685148156962217  5.453814326464903 2.819622866524005 4.666420285521215  5.576727473489903 2.635957368153128 4.768284752294345  5.438472957667394 2.585788881219743 4.769475529212078  5.451847215506798 2.834269349409657 4.749712374908502  5.722378872659964 3.107795652805364 4.106444899948475  5.79863982263941 2.995814232970353 4.174099350559306  5.864477846385126 3.091669308878448 4.124389254420058  5.857452559412446 3.134562565499746 4.193546930469217  5.794089874372198 3.031431271766081 4.248907441377297  5.718316926310928 3.152131876651065 4.175430051637233  5.850369896715634 3.177297737156629 4.262683067138116  5.789463603701276 3.066916736777118 4.323616321506011  5.714154534770128 3.196324600191301 4.244369525528274  5.784810001277607 3.102312817635271 4.398252117884756  5.709950005455414 3.24042748793696 4.313258840229275  5.843278042273117 3.219943048813693 4.331771197347582  5.780164210863624 3.137642461150788 4.472824045192824  5.705752756214348 3.284468823216232 4.382092547677  5.836209247638073 3.262538703785988 4.400818366540554  5.775551338314112 3.172922798109854 4.547342862225836  5.701609121216259 3.328467649620052 4.450874355320111  5.829186042343308 3.305104045179952 4.469825742858045  5.77105017200531 3.208150564234728 4.621837549266336  5.69760283085914 3.372421925122579 4.519615174664668  5.822233444202873 3.347651527126781 4.538801133714149  5.825187553386252 2.552362819084582 4.257907061583317  5.823184948766894 2.544374081424752 4.341121959322006  5.821111664225429 2.536414067278554 4.424206755623763  5.818995236746785 2.52842540989354 4.507175252837729  5.816872427849069 2.520398412394227 4.590058127324859  5.814780301186731 2.512333412495304 4.672874071676715  5.812796979067272 2.50421174970361 4.755630374514303  6.086413867481157 2.475006359132313 4.262562629751941  6.071159121211311 2.630892428887544 4.275890171627796  6.06394523144863 2.629643535578632 4.3593267192186  6.079115303729758 2.461112815617712 4.344238955325006  6.071723968094903 2.447236284111971 4.425801725923394  6.056657892166863 2.628391093224914 4.442645127572537  6.064301538298793 2.433349350443791 4.507290017156398  6.049344018286934 2.627106383674715 4.525874489581054  6.056880161494929 2.41944483432572 4.588719629066274  6.04204332928298 2.62578276477809 4.60903396427379  6.034792259111541 2.624413199967669 4.692142971786143  6.049500061736882 2.405511368483915 4.670106936546579  6.042255515237629 2.391507839689495 4.75145997050797  6.027636551227362 2.622986894991021 4.775202665286877  5.705732092058337 2.462307038271123 4.243201985603465  5.705386299590306 2.321131017899588 4.213306549081275  5.708189498396572 2.296874512775601 4.291911977465233  5.708307229524259 2.44807266182679 4.325301315671288  5.710944497936513 2.272655016976296 4.37040992756159  5.71081479725851 2.433873736239555 4.407275673776807  5.713656751682763 2.248447660598237 4.448821736730988  5.713277122672276 2.419667419145756 4.489131599016922  5.716340655605125 2.224244297233244 4.527172584539614  5.7157261333175 2.405439284170674 4.570903395548983  5.719051434179879 2.200013980593963 4.605456473903875  5.718190956976041 2.39118223573068 4.652611454232076  5.721831480228297 2.175724265517427 4.683648880016026  5.720741988334074 2.376865178013689 4.734251643698546  6.181934599244978 3.066714238416446 4.187483044248772  6.317628412536499 3.118399371689295 4.173093207679869  6.176866232313984 3.184004881907993 4.106478244363474  6.16564423362011 3.231549179890183 4.170027604433463  6.307690932586271 3.159980122447353 4.242322252962291  6.170687321591533 3.104742252377249 4.259376589193205  6.154475524220183 3.27893471163188 4.233590726972839  6.29781139609841 3.201449543085846 4.311481736250828  6.159475987540673 3.142650934910769 4.331229681451725  6.143367999833784 3.32625788524498 4.297135260652376  6.287979268715788 3.24284663597257 4.380588098312922  6.148311103771205 3.180495746756204 4.403033742204684  6.13229921853786 3.373549529611451 4.360662833988947  6.278180151926724 3.284186565927563 4.449659809154163  6.137183046381238 3.218293873462593 4.474804868464931  6.121243857502795 3.420822529710338 4.424182131057406  6.268395574142829 3.325467436089535 4.518713220382522  6.126076011687384 3.256051341191584 4.546559203597694  6.110169410435527 3.468094027634529 4.487692864051387  6.258613334383404 3.366680657234195 4.587767526533739  6.114956448506669 3.293767217730703 4.618312163111175  5.675467272242591 2.983793930309471 4.176915741761174  5.670943919108505 3.018842251201408 4.252802499587317  5.666339446905046 3.053768161956801 4.328573674229444  5.661692514095485 3.088606277044362 4.404246646735502  5.657046770689191 3.123376695721359 4.479838027673468  5.652448233273357 3.158091490155725 4.555363228163405  5.647970156521394 3.192722923139615 4.630868233559098  5.495686930085207 2.871385154949619 4.211972519723443  5.580040989062365 2.743582529108558 4.249783182123375  5.617350500060201 2.856261426577158 4.216418348948371  5.6145151193838 2.881576734719399 4.296902584363981  5.579644673491091 2.760994636563121 4.333112436484229  5.495486912162651 2.898557152217565 4.29240072305431  5.611589832138272 2.906807182052044 4.377214391083874  5.579143611190605 2.778360140421153 4.416230712894413  5.495155852833186 2.925646343963763 4.372655225671235  5.608610841501392 2.931959931090322 4.457380466276842  5.578587399575322 2.795671111484474 4.499201273932254  5.494765784091516 2.95265228620652 4.452747401867083  5.605620641512166 2.957044979429776 4.537439299901688  5.578011487355667 2.812923409914005 4.582058669381987  5.49436523913506 2.979581546266281 4.532721714326335  5.602666500242322 2.982071911398755 4.617416176845808  5.577477135713767 2.830130616649081 4.664833624601791  5.494002721972451 3.006438976879232 4.612604200491633  5.599814535834389 3.007018492564014 4.697348421921166  5.577052128980649 2.847265478531582 4.747559745718799  5.493768271567489 3.033208284761563 4.692432401068149  5.482880867856126 2.273836424482473 4.206990233923855  5.598433777003343 2.229871557621468 4.185817263257669  5.578246913460776 2.367012180160269 4.234527432049203  5.582147018765236 2.346549311423868 4.315357707352885  5.603125901536502 2.199494639375623 4.261587906859779  5.487487694987641 2.247972228898318 4.285087171377212  5.58599125918619 2.326137589684011 4.39606149826726  5.607771764552164 2.169169613231294 4.337264913652504  5.492045955349369 2.222151910074969 4.363077138424818  5.58979513043366 2.305735901851872 4.476651934016501  5.61237050460841 2.138881791552909 4.412878098887958  5.496570190061258 2.196362820934749 4.440974058193062  5.593582419754182 2.285332856079997 4.55716541497272  5.61695347415758 2.108599652425139 4.488430892807717  5.501074367768951 2.17058480581292 4.518806262644962  5.597391573246561 2.264901227717663 4.637607797484183  5.621561644149765 2.078292200563724 4.563911015207281  5.505602866761306 2.144780416736047 4.596572687952271  5.601259349696541 2.244412677842901 4.717988324985687  5.626221729844074 2.047939711714579 4.639307534213097  5.510195191538734 2.118922249795615 4.674272361065541  5.88140234392457 2.27386061865477 4.19964144145013  5.989711104322975 2.216456810477187 4.173874890693371  5.988025280369053 2.182480949903856 4.246929067630258  5.879743905758459 2.24580577612371 4.276150178019397  5.986212786033881 2.148554254547704 4.319962145385393  5.877996275183475 2.217792058826062 4.352575929788087  5.984340507182563 2.114643050378484 4.392963048028273  5.876189765042967 2.189794378386114 4.428948321207734  5.982469992602424 2.080722076663155 4.465921315137445  5.874369372970791 2.161793075755206 4.505270028646868  5.980660490526089 2.046773102365318 4.538828548273815
[...]
<PointData  Vectors="f_16"> 
<DataArray  type="Float64"  Name="f_16"  NumberOfComponents="3" format="ascii">5.1621162476338696e-02 -1.9168576722021383e-02 1.9802232121679739e-02  5.0786891522315157e-02 -1.8457051412231466e-02 1.9857548153159640e-02  5.0681813932197117e-02 -1.8262806019254483e-02 1.9588110445314340e-02  5.0662772112103363e-02 -1.8089578313438794e-02 1.9874491579512217e-02  5.0869472306595546e-02 -1.8403405371665408e-02 2.0156990315696715e-02  5.1704054370362407e-02 -1.9055394837387350e-02 2.0101845109320070e-02  5.0663997247081510e-02 -1.7920027663837140e-02 2.0137265602516618e-02  5.0984562081272604e-02 -1.8348576239423972e-02 2.0425171749770099e-02  5.1786584767713160e-02 -1.8939438170270072e-02 2.0377994681630790e-02  5.0676029557564443e-02 -1.7749607770903765e-02 2.0371813411380880e-02  5.1113893308295640e-02 -1.8284578046371840e-02 2.0661908288372353e-02  5.1865484199974020e-02 -1.8816008636200105e-02 2.0624046489581067e-02  5.0691320948819611e-02 -1.7575756952594453e-02 2.0579975536296206e-02  5.1244092144122219e-02 -1.8210487265894366e-02 2.0871723851313775e-02  5.1945496717006823e-02 -1.8684337335030814e-02 2.0841702610795768e-02  5.2032891673190404e-02 -1.8546316741657642e-02 2.1040842409882288e-02  5.1362560199458458e-02 -1.8127392689167968e-02 2.1063028149294307e-02  5.0702648715443964e-02 -1.7398015742341313e-02 2.0772217303184525e-02  5.2130645097601604e-02 -1.8407693695459710e-02 2.1241851283130549e-02  5.1452389383833647e-02 -1.8040973369500491e-02 2.1255624399992443e-02  5.0701419549189226e-02 -1.7217432457610229e-02 2.0964571424452617e-02  5.3184067779012620e-02 -2.0286982032416093e-02 1.8536052738208034e-02  5.3606385724680156e-02 -2.0637822474132914e-02 1.9352314255746125e-02  5.2645229129428942e-02 -1.9931749954316118e-02 1.9207459568613094e-02  5.2584885697667130e-02 -1.9556418629485199e-02 1.9509722268869226e-02  5.3541171809222438e-02 -2.0263392401400883e-02 1.9704745084891964e-02  5.2995060271460309e-02 -1.9769540981202954e-02 1.8794496572966876e-02  5.2741299818590381e-02 -1.9271498114345306e-02 1.8973429825171789e-02  5.3410883794028745e-02 -1.9892754967562570e-02 1.9968963665765175e-02  5.2459973308258474e-02 -1.9186861313633931e-02 1.9753230714823263e-02  5.2465964601409093e-02 -1.8786702925123289e-02 1.9094016595717675e-02  5.3257817161081550e-02 -1.9521034811178603e-02 2.0168765969377792e-02  5.2307121124011806e-02 -1.8818318712071569e-02 1.9948364628277437e-02  5.2197728451088714e-02 -1.8311854983277986e-02 1.9168271058075375e-02  5.3108156474776923e-02 -1.9147524578250925e-02 2.0318805185156524e-02  5.2157913046285184e-02 -1.8450625689630035e-02 2.0104571102032474e-02  5.2037128774190866e-02 -1.8083179124448647e-02 2.0229401587394100e-02  5.2982346033402405e-02 -1.8769016774909324e-02 2.0425495573893972e-02  5.1960314816245051e-02 -1.7845735889041401e-02 1.9203132579196262e-02  5.1973164997934640e-02 -1.7718691303176371e-02 2.0323887974093163e-02  5.2901044868047871e-02 -1.8388424052773869e-02 2.0492111269173843e-02  5.1772668606664692e-02 -1.7386007109162802e-02 1.9200608705626922e-02  5.1239478967145591e-02 -1.9251830618944924e-02 1.6150936104467294e-02  5.0824192925826427e-02 -1.8591564229649266e-02 1.7159025656669571e-02  5.0457515350726706e-02 -1.8342692498789153e-02 1.6555861424747017e-02  4.9974157057835193e-02 -1.7801716032505004e-02 1.6443528442540704e-02  5.0438348288014502e-02 -1.8036897090075794e-02 1.7157926578599776e-02  5.0799144447905564e-02 -1.8630247120473686e-02 1.6032524004321255e-02  4.9485356073252385e-02 -1.7282391682992421e-02 1.6350755821119837e-02  5.0022640818800569e-02 -1.7508416494508603e-02 1.7152605763227670e-02  5.0311456296499302e-02 -1.8035539083433173e-02 1.5915927307606697e-02  4.9599610650979536e-02 -1.6998127691742613e-02 1.7135275010816072e-02  4.9805620334683574e-02 -1.7459026688175939e-02 1.5791034194584483e-02  4.8995578784182807e-02 -1.6777086493554833e-02 1.6259265526099256e-02  4.9183554036244234e-02 -1.6498626456647337e-02 1.7103740588353199e-02  4.9307385551148858e-02 -1.6893540941803283e-02 1.5654366429910530e-02  4.8513409331871989e-02 -1.6278645968880050e-02 1.6161154284644982e-02  4.8787622359012218e-02 -1.6002042210334799e-02 1.7062767299370223e-02  4.8840411845876272e-02 -1.6330469092669039e-02 1.5509456504789933e-02  4.8048043759895208e-02 -1.5777821428820244e-02 1.6057626073907677e-02  4.8430137104785900e-02 -1.5488841085522861e-02 1.7033584188266688e-02  4.8431515870128221e-02 -1.5762995840876478e-02 1.5361072806920414e-02  4.7597375268833342e-02 -1.5251628286004900e-02 1.5969045188807204e-02  5.1304798960295120e-02 -1.8843124688712506e-02 1.9425427980123373e-02  5.1292826778330261e-02 -1.8602439953418301e-02 1.9716391076620019e-02  5.1261604577365449e-02 -1.8366917685808740e-02 1.9983135574231294e-02  5.1223968624563167e-02 -1.8132902746056907e-02 2.0219688149078159e-02  5.1190381707179031e-02 -1.7897968943373203e-02 2.0428181057401351e-02  5.1171411075522866e-02 -1.7660368679376610e-02 2.0618483737552252e-02  5.1182223649284597e-02 -1.7418222388449669e-02 2.0811526047007776e-02  4.9992976242475326e-02 -1.7672223178726947e-02 1.9741459887356361e-02  4.9754185254822315e-02 -1.7355712188554993e-02 1.9356326079643781e-02  4.9624402424525191e-02 -1.7125693309428220e-02 1.9617165047375502e-02  4.9986370380800685e-02 -1.7564099127030452e-02 2.0039569641693747e-02  5.0033552369470609e-02 -1.7457237699238650e-02 2.0302329929763552e-02  4.9539086685277969e-02 -1.6908955602899116e-02 1.9854240434426920e-02  5.0102790376958327e-02 -1.7345588730498001e-02 2.0531989392844903e-02  4.9477058007501760e-02 -1.6695956940201338e-02 2.0061538966918275e-02  5.0172758596632672e-02 -1.7227451022585136e-02 2.0733355579717054e-02  4.9420197890721253e-02 -1.6483207394702958e-02 2.0242201752096602e-02  4.9350714677170060e-02 -1.6268443375905016e-02 2.0404212104557274e-02  5.0224720997033172e-02 -1.7102895601795377e-02 2.0915802161870178e-02  5.0231224343026203e-02 -1.6976816000129819e-02 2.1090439702351589e-02  4.9244556456373711e-02 -1.6047003000958925e-02 2.0564043839038090e-02  5.2157704159910653e-02 -1.9644041455247323e-02 1.9678845027536283e-02  5.2502195919594367e-02 -1.9980370476216792e-02 1.9969859387451102e-02  5.2661999426169503e-02 -1.9898987837574333e-02 2.0276971867399105e-02  5.2234163466613109e-02 -1.9442765379592195e-02 1.9996100673597993e-02  5.2778775274727685e-02 -1.9802265681554788e-02 2.0557626596278800e-02  5.2252757528044848e-02 -1.9234628045035129e-02 2.0283428213001296e-02  5.2877655964538771e-02 -1.9692493624317249e-02 2.0803784322823378e-02  5.2249385157159191e-02 -1.9021780212489566e-02 2.0533586061909186e-02  5.2976686420107798e-02 -1.9571010361699587e-02 2.1017639191320735e-02  5.2247375123454579e-02 -1.8804181761862382e-02 2.0750135494848158e-02  5.3093830109681550e-02 -1.9441174791904877e-02 2.1207665000158051e-02  5.2268860449235878e-02 -1.8581503353451004e-02 2.0941861680388616e-02  5.3260383607136447e-02 -1.9310976033235724e-02 2.1393903355032405e-02  5.2350581091894957e-02 -1.8353954955896139e-02 2.1126215138246533e-02  4.8395241210192293e-02 -1.5946431545374014e-02 1.7581501405038655e-02  4.7375720593505408e-02 -1.4835524789392063e-02 1.7625155361178022e-02  4.8518471358594932e-02 -1.6046620472711336e-02 1.6728958813807957e-02  4.7862189377022163e-02 -1.5635323502330323e-02 1.6586788880061504e-02  4.6789306170523973e-02 -1.4455801809312923e-02 1.7625453001499241e-02  4.7862352482313880e-02 -1.5538146237863504e-02 1.7567181561809361e-02  4.7263781326257984e-02 -1.5245303530358018e-02 1.6465699163241060e-02  4.6274058902247131e-02 -1.4102058011157156e-02 1.7614446422101211e-02  4.7390324029799702e-02 -1.5160084652060823e-02 1.7555472480749144e-02  4.6695490186386614e-02 -1.4868524025624056e-02 1.6353064789958436e-02  4.5794685188798673e-02 -1.3768464548736205e-02 1.7586648827445053e-02  4.6948171920719976e-02 -1.4800217353778301e-02 1.7537680234906473e-02  4.6133902617173768e-02 -1.4497269693236102e-02 1.6239432638549604e-02  4.5321937210219307e-02 -1.3451704088220747e-02 1.7540564527640464e-02  4.6511698267022623e-02 -1.4449308706069480e-02 1.7509155286284873e-02  4.5556977331903538e-02 -1.4124465104563069e-02 1.6122377688045517e-02  4.4830167283025829e-02 -1.3149343451152552e-02 1.7477094485518124e-02  4.6058476694579492e-02 -1.4099753131113309e-02 1.7470420196843327e-02  4.4940147759417085e-02 -1.3745838431575452e-02 1.5999937320350207e-02  4.4299047386761027e-02 -1.2857188816230887e-02 1.7406679899883284e-02  4.5555069377964108e-02 -1.3748919983191788e-02 1.7420567779054496e-02  5.1533236005843468e-02 -1.9243866871937167e-02 1.7090525635059493e-02  5.1185110419504659e-02 -1.8645018642017199e-02 1.7109301558257614e-02  5.0794373932454555e-02 -1.8076901089241974e-02 1.7105124621609989e-02  5.0384729055468924e-02 -1.7528851188745462e-02 1.7078915228217587e-02  4.9981869433412242e-02 -1.6994405859534260e-02 1.7030724858378091e-02  4.9612090261867692e-02 -1.6466337852172774e-02 1.6967430215135831e-02  4.9296035032516700e-02 -1.5939975276406119e-02 1.6898340320347118e-02  5.2767534805255360e-02 -2.0099290723032869e-02 1.7718156392831023e-02  5.2395197043144881e-02 -1.9724125102022469e-02 1.8579630842942362e-02  5.2021042284615848e-02 -1.9525581575311521e-02 1.7898780738440347e-02  5.1776358612328405e-02 -1.8972213805613730e-02 1.8033076898012253e-02  5.2224910714012349e-02 -1.9234815098104870e-02 1.8800345474766503e-02  5.2504173617662263e-02 -1.9485824251057510e-02 1.7868474971821393e-02  5.1474809883766327e-02 -1.8444561867369608e-02 1.8135319514086878e-02  5.1986187492572951e-02 -1.8759860420344873e-02 1.8964429643344320e-02  5.2154061474384630e-02 -1.8898563853056549e-02 1.7954597191627380e-02  5.1146739960633493e-02 -1.7934571184589222e-02 1.8199110518727239e-02  5.1720354859491516e-02 -1.8295150973155403e-02 1.9082809231996418e-02  5.1775150211799681e-02 -1.8332769262406588e-02 1.7989575304304325e-02  5.0821767020996243e-02 -1.7437934099775485e-02 1.8230189279377119e-02  5.1458226253084854e-02 -1.7838863262351064e-02 1.9164740599293555e-02  5.1403349356817049e-02 -1.7785561661017413e-02 1.7984362713471147e-02  5.0526716825283466e-02 -1.6951164802670522e-02 1.8236147654832450e-02  5.1227612951366533e-02 -1.7389458488170206e-02 1.9218562015422110e-02  5.1069182516083070e-02 -1.7253956730351603e-02 1.7947984277934113e-02  5.0287813466996345e-02 -1.6470039539110960e-02 1.8230795792517372e-02  5.1066625509177697e-02 -1.6949358922801031e-02 1.9250245274144720e-02  5.0813371501881366e-02 -1.6737967351340189e-02 1.7881999094386963e-02  5.3994733798178873e-02 -2.1201182397103838e-02 2.0199167309962643e-02  5.3367683382693695e-02 -2.0739450566259889e-02 2.0144956908634305e-02  5.3156158204720950e-02 -2.0486340753276225e-02 1.9987610957228723e-02  5.3301172363438731e-02 -2.0341168490823989e-02 2.0341036844246634e-02  5.3590087105401821e-02 -2.0716042839744608e-02 2.0451564383797402e-02  5.4181411296790681e-02 -2.1127309851790871e-02 2.0550176383898902e-02  5.3366192777355125e-02 -2.0176304415915058e-02 2.0634168381390313e-02  5.3753193940224549e-02 -2.0666959457002421e-02 2.0722457409493637e-02  5.4290915587559954e-02 -2.1021449329090947e-02 2.0842140073006384e-02  5.3404843521044930e-02 -1.9998094300635091e-02 2.0883488219449992e-02  5.3892422817872813e-02 -2.0598266065593000e-02 2.0956766726454582e-02  5.4371944504268847e-02 -2.0892613159941297e-02 2.1086324995786571e-02  5.3446534808630423e-02 -1.9808904212126187e-02 2.1097035162793761e-02  5.4032427183752202e-02 -2.0512241655666702e-02 2.1157731464025994e-02  5.4454218163745224e-02 -2.0746735840070307e-02 2.1290992075493471e-02  5.3517307901325507e-02 -1.9608911212062111e-02 2.1280866622911458e-02  5.4195719314538995e-02 -2.0412098605763582e-02 2.1331976427783544e-02  5.4561905051496933e-02 -2.0587023499802660e-02 2.1460239309904202e-02  5.3656961477620495e-02 -1.9399599547273751e-02 2.1432825521632889e-02  5.4407409636202775e-02 -2.0299305883203379e-02 2.1486406651334014e-02  5.4719315356643101e-02 -2.0412685566266554e-02 2.1593885531391580e-02  5.1629707475807203e-02 -1.9242905620726114e-02 1.9953293296331564e-02  5.1095891665649477e-02 -1.8871173628339726e-02 1.9927775000257539e-02  5.1286601591948151e-02 -1.8936376748834496e-02 2.0204532286975389e-02  5.1785435761382344e-02 -1.9234572766761437e-02 2.0242692687760962e-02  5.1510249614327465e-02 -1.8980182047917959e-02 2.0446886934727564e-02  5.1953740155375273e-02 -1.9216710630888017e-02 2.0500553321761549e-02  5.1743673899580830e-02 -1.9005509150891935e-02 2.0658889236484314e-02  5.2125319537321413e-02 -1.9185990632696683e-02 2.0730074136127326e-02  5.1975054241198984e-02 -1.9014969374858012e-02 2.0845927297625740e-02  5.2296691257820778e-02 -1.9142656595395335e-02 2.0934642690097555e-02  5.2194327926986278e-02 -1.9012054130959247e-02 2.1014256583658682e-02  5.2465233601534898e-02 -1.9090806184761624e-02 2.1123781041739672e-02  5.2388093003677270e-02 -1.9000898910536076e-02 2.1174745430463719e-02  5.2625569471633452e-02 -1.9037781261375973e-02 2.1306799125305056e-02  5.3955395614223405e-02 -2.0444532099593696e-02 1.8986985497910915e-02  5.3689613188714375e-02 -1.9945319061981687e-02 1.9179223590084681e-02  4.9169308177745362e-02 -1.6735907729463595e-02 1.8390595804498717e-02  4.8669783967912959e-02 -1.6255048564061937e-02 1.8839325287297894e-02  4.8297911694767652e-02 -1.5861279718491907e-02 1.8429502311672022e-02  4.7888763653851626e-02 -1.5498007813013796e-02 1.8542235951255280e-02  4.8367384213794100e-02 -1.5939520607321667e-02 1.9021253705293766e-02  4.8803964072098360e-02 -1.6352330028040325e-02 1.8505157892479314e-02  4.7546278470207246e-02 -1.5162372871673019e-02 1.8635977053470445e-02  4.8130126221571715e-02 -1.5645883981201956e-02 1.9176168549081517e-02  4.8485868340847622e-02 -1.5992706738552607e-02 1.8609582218026780e-02  4.7234752358962323e-02 -1.4843883852030988e-02 1.8707799416138916e-02  4.7920315131597904e-02 -1.5364444151504437e-02 1.9305076977530384e-02  4.8190788189820456e-02 -1.5647389989591764e-02 1.8695068167722866e-02  4.6929513459254217e-02 -1.4535725761780260e-02 1.8758937444325725e-02  4.7714470534685804e-02 -1.5089636748920535e-02 1.9410239283102822e-02  4.7902047652300453e-02 -1.5310231540770365e-02 1.8762098789208058e-02  4.6609263563145639e-02 -1.4234001768902219e-02 1.8792113281171415e-02  4.7490101253286988e-02 -1.4817590424527219e-02 1.9496100825150922e-02  4.7605052861275601e-02 -1.4976598040481251e-02 1.8814510492486770e-02  4.6248586935420909e-02 -1.3937706371057554e-02 1.8809697004586293e-02  4.7217879105560689e-02 -1.4545036192244152e-02 1.9564817609004029e-02  4.7286015646596360e-02 -1.4635666897537994e-02 1.8870456878817603e-02  4.6931650684644312e-02 -1.5232858873031031e-02 1.9816819162464753e-02  4.6967971442691638e-02 -1.5037486674786693e-02 1.9576868982509918e-02  4.7996385657588216e-02 -1.5954952767781111e-02 1.9747903647786325e-02  4.7954610179287704e-02 -1.5818192044665828e-02 2.0062363963301678e-02  4.6886748457533316e-02 -1.4854446850458199e-02 1.9890226752264803e-02  4.6980525585372489e-02 -1.5119998186465030e-02 2.0148334258263310e-02  4.7059571537293649e-02 -1.4996287976810520e-02 2.0397062555205327e-02  4.6850610518878608e-02 -1.4675085161946927e-02 2.0124823549503471e-02  4.7971246753908951e-02 -1.5683249336235647e-02 2.0312564185096867e-02  4.7146966139792197e-02 -1.4862641217127317e-02 2.0593235653053210e-02  4.6831463708064888e-02 -1.4497519238549998e-02 2.0307071595897196e-02  4.8009016991947408e-02 -1.5543048278229367e-02 2.0515004055226851e-02  4.7231765400045679e-02 -1.4723279820035091e-02 2.0748967755772878e-02  4.6812690042249930e-02 -1.4320753155777358e-02 2.0449771852318784e-02  4.8044059271659341e-02 -1.5398745226696028e-02 2.0680920141775194e-02  4.7306696533088610e-02 -1.4580276881901902e-02 2.0867205785488417e-02  4.6781775580448680e-02 -1.4145387073181867e-02 2.0555303757099082e-02  4.8059396141346682e-02 -1.5250702215723581e-02 2.0813516239149864e-02  4.7368497966675818e-02 -1.4435129107599474e-02 2.0950270420814324e-02  4.6730594153852049e-02 -1.3971574760074211e-02 2.0615870362941779e-02  4.8042006862639250e-02 -1.5100860822335095e-02 2.0915949617443856e-02  4.7799760299699311e-02 -1.6011920019906423e-02 1.9888631301098310e-02  4.7880752904860685e-02 -1.5954353167666590e-02 2.0228086716277252e-02  4.8003770858384476e-02 -1.5877138163705187e-02 2.0486353462279793e-02  4.8138022231417658e-02 -1.5785403347650315e-02 2.0697489862470806e-02  4.8268912948682435e-02 -1.5683597911415131e-02 2.0872604596013936e-02  4.8384865007351799e-02 -1.5574007522341711e-02 2.1014236061694509e-02  4.8475327881589390e-02 -1.5457914971926265e-02 2.1115782785550499e-02  4.9477289483920765e-02 -1.7878554084989166e-02 1.9801194155666908e-02  4.8837155278973372e-02 -1.7267371954677375e-02 1.9885663441923215e-02  4.9584927311313941e-02 -1.7608974555526232e-02 1.9931249013025908e-02  4.9741301510813275e-02 -1.7648570471993263e-02 2.0239135632959093e-02  4.9114280923766837e-02 -1.7363378967925596e-02 2.0165321063328662e-02  4.9793318548347655e-02 -1.8004157735043404e-02 2.0044496147647427e-02  5.0102879843054816e-02 -1.8084477913476414e-02 2.0249953696757795e-02  4.9404137059643458e-02 -1.7418567185766020e-02 2.0391207089695610e-02  4.9945350321342903e-02 -1.7664490555208825e-02 2.0494001873737826e-02  4.9698144926611940e-02 -1.7447600900480035e-02 2.0582858729397330e-02  5.0411593642427727e-02 -1.8135929361389611e-02 2.0425041660776206e-02  5.0165752641099653e-02 -1.7662068692144591e-02 2.0711261041163397e-02  5.0719486256088873e-02 -1.8164724367123623e-02 2.0576389627067634e-02  4.9992457310860237e-02 -1.7457147741499486e-02 2.0748200711538680e-02  5.0383199370601671e-02 -1.7644551379891307e-02 2.0900175959721056e-02  5.1023796751893911e-02 -1.8173828957424375e-02 2.0706018590369992e-02  5.0281338825610297e-02 -1.7446931577212488e-02 2.0891039831166261e-02  5.0581661872210179e-02 -1.7612460155741121e-02 2.1063672865105861e-02  5.1328591403629276e-02 -1.8173907983966609e-02 2.0816799716412898e-02  5.0547693162269182e-02 -1.7406479650610183e-02 2.1000195435570752e-02  5.0743916691271880e-02 -1.7564364307369181e-02 2.1212067730244481e-02  5.1898721561188743e-02 -1.9357730735734872e-02 1.9311545741071259e-02  5.1224665753939344e-02 -1.8744834973306014e-02 1.9051544333109866e-02  5.1668536060309800e-02 -1.9148892777838555e-02 1.8668507205525663e-02  5.1516727664110896e-02 -1.8712222532217306e-02 1.8889879449890297e-02  5.1124315714806350e-02 -1.8406333802148723e-02 1.9306514689712045e-02  5.1877430018464725e-02 -1.9052802223621660e-02 1.9610270761994581e-02  5.0994844469105544e-02 -1.8076590007309566e-02 1.9533252043855826e-02  5.1802305920928986e-02 -1.8747391962337576e-02 1.9871490779892798e-02  5.1317056805625691e-02 -1.8292839406279557e-02 1.9077698234193793e-02  5.0856495796628154e-02 -1.7752330332049992e-02 1.9730719115448100e-02  5.1707006341557851e-02 -1.8445485039107621e-02 2.0095384492019849e-02  5.1097901299638655e-02 -1.7884442266109433e-02 1.9230783196188487e-02  5.1615843134991082e-02 -1.8144724487037907e-02 2.0287814975730633e-02  5.0722939018419094e-02 -1.7431815505378735e-02 1.9902857986168272e-02  5.0883328387620975e-02 -1.7483696932515398e-02 1.9355116074086888e-02  5.1550679658127263e-02 -1.7842759600541859e-02 2.0457682861667697e-02  5.0607084595287649e-02 -1.7112662713353641e-02 2.0059546232934791e-02  5.0697597972822701e-02 -1.7087644428525339e-02 1.9459246299751577e-02  5.1541825658652451e-02 -1.7539975408527711e-02 2.0621433234995087e-02  5.0525022847177546e-02 -1.6789004641348741e-02 2.0214867670865968e-02  5.0573071497321868e-02 -1.6687949216174117e-02 1.9559967449217765e-02  4.9285295972005400e-02 -1.6885600555531462e-02 1.7653616118001373e-02  4.9276097881603968e-02 -1.6943463050430783e-02 1.6769486725983204e-02  4.8683314310338129e-02 -1.6489831227430304e-02 1.6636538517280773e-02  4.8814935260349912e-02 -1.6447434501749580e-02 1.7667309965138621e-02  4.8381861977691405e-02 -1.6028743032818205e-02 1.7687260856127939e-02  4.8135282055