<?xml version="1.0"?>
<VTKFile type="UnstructuredGrid"  version="0.1"  >
<UnstructuredGrid>
<Piece  NumberOfPoints="1001" NumberOfCells="4282">
<Points>
<DataArray  type="Float64"  NumberOfComponents="3"  format="ascii">7.942863510534979 1.389919556947329 1.940959907789745  7.963620646833376 1.378370874575523 2.047418823898493  7.849989199692477 1.36308492061138 2.047228763556958  7.858131697061848 1.302278403813664 2.039522421197939  7.971808028995327 1.317835925855169 2.039498211596534  7.95154971187922 1.32922095891475 1.930885128722055  7.979898000330548 1.257283061675143 2.031651930826067  7.960166929365987 1.268503568183073 1.920868453077597  7.866200958446051 1.241476239815363 2.031907599565401  7.987944164897611 1.196730114377325 2.023838077426058  7.968752555680919 1.207783312664105 1.910882130199208  7.874231478348332 1.180679270441912 2.024331353070509  7.995974312189677 1.136186319768582 2.016046199499069  7.977326963326565 1.147067925590649 1.900919187930322  7.882238443261408 1.119891631777941 2.016776919856702  8.00402063908744 1.075659158487262 2.008268199172972  7.985912355161016 1.08636491215615 1.890978353520554  7.890233219842706 1.059120496073546 2.009232845376658  7.994541776316323 1.025673189216565 1.881048091207197  8.012147910110968 1.015165250965818 2.000470993416982  7.89824032246281 0.9983988421008605 2.001663107738845  7.632856450548441 1.760811300761715 1.222590031346605  7.521914807488933 1.743486294555148 1.227971490240614  7.592825639395671 1.839040631407414 1.173086843561535  7.598097963276611 1.807714516921841 1.117446607790699  7.521581533607165 1.706151084868306 1.174838250531894  7.638520172098516 1.727387453391457 1.167547185323881  7.60334205708584 1.776167188127122 1.061658841556841  7.521028494840163 1.668602094109703 1.121631693086387  7.644147244532736 1.693714111286037 1.11239771818749  7.60857249621359 1.744534873525738 1.005734562115162  7.520415214065998 1.63095667681793 1.068336397332083  7.649759420874334 1.659957811951161 1.05713556009956  7.613798681672336 1.712899549786171 0.9496682641267675  7.519831619537139 1.59328964959122 1.014942182085192  7.655365129714078 1.626203956059272 1.001740511105749  7.619070439087767 1.681278148094266 0.8934442334316332  7.519352835508276 1.555628267869692 0.9614332535802456  7.661002916036892 1.592476613743852 0.9461955495433535  7.624393526737684 1.649646041874887 0.8370570859679677  7.519019858611442 1.517976982750804 0.907796377327169  7.666681897620948 1.558764533492915 0.8904496325765822  7.791642661456647 1.372014718224905 1.929215280185241  7.800081931855297 1.310806000673973 1.919260021403625  7.808471446828672 1.24958140742015 1.909368990186379  7.816830784874786 1.188351182322745 1.899512695624238  7.825169054933262 1.127121977967172 1.88967870335272  7.833495093154307 1.06589988220053 1.879860350393235  7.841828118730501 1.004693222855209 1.870052292635684  7.881951635997163 1.398881734592015 1.844095142493143  7.890754477429987 1.337894702354729 1.831791241876866  7.899526864644648 1.276875017994744 1.819520277166504  7.908284069323284 1.215842318806973 1.807271255579743  7.917031383236488 1.154803559460072 1.795046724106758  7.925772354823337 1.093760170894382 1.782853116459668  7.934524555924086 1.032703475288981 1.770696683779939  8.791144904307437 1.545604317955716 2.021772746149184  8.808127409472743 1.527651683989079 2.115788215630238  8.696556422571053 1.495874613119582 2.096560907396565  8.711585913310445 1.438934281303991 2.086198240119265  8.912704733459 1.197935442170935 2.05830247164195  8.893543862395031 1.223004590373194 1.923406525816131  8.787558472290076 1.155023633801119 2.034047715703407  8.772717118903651 1.211895784906056 2.044375085351681  7.476359307639264 1.85181585383079 1.153312459322791  7.476356730643728 1.82007763823753 1.097283870065856  7.476147369548733 1.788146305151656 1.041144941496576  7.475881832168769 1.756154599957035 0.9849373327166981  7.475659927350972 1.724149334745592 0.9286181299206919  7.475562102002895 1.692157535251241 0.8721456145327247  7.475593939674503 1.660162987283842 0.8154942206927209  8.123911585525306 1.87816676617412 1.303442640614055  8.150126066475904 1.796513122903549 1.359444451037346  8.045334439157614 1.772608939384607 1.330546777305777  8.065998367639983 1.74053567769721 1.281468532499042  8.172461213226619 1.766701082985099 1.31055482398261  8.146208614351149 1.852174817350505 1.253392516292794  8.168976577771245 1.826219387498128 1.203512229567763  8.195251652549972 1.736961790295053 1.261833260656557  8.087078922816859 1.708447012705029 1.232476021819288  8.191927852891995 1.800292476011616 1.153694158562694  8.218200712564613 1.707258654785851 1.213172578298024  8.10830249324675 1.676351073039542 1.183493045128693  8.214837794739724 1.77437633027866 1.103867046364116  8.241092622643544 1.677562443071595 1.164506842974181  8.129483229298184 1.644239161101818 1.134463720597305  8.237502537230304 1.748441222430595 1.053957543271778  8.263735675148762 1.647843859276683 1.115767720236344  8.150480439204902 1.612095672636041 1.085329405160609  8.259722339917534 1.722453001902267 1.003844018526849  8.285941987834033 1.61805616245787 1.066859795158353  8.171193293710525 1.579894253044718 1.036015003006528  8.683821600419437 1.528885469873788 1.972135238911996  8.70048526055605 1.474071785583662 1.954427388570169  8.785061925871029 1.20104744983427 1.86548063836023  8.015431768323159 1.878715263999673 1.257673603897971  8.036114937528902 1.852270444445603 1.206377632847339  8.057248081882149 1.82580908007793 1.155170615909408  8.078538577614413 1.799342711403845 1.103969486286376  8.099786830161184 1.772870712021912 1.052715124765182  8.120828433477826 1.746375176035588 1.00134312995669  8.141543447289239 1.719835694641916 0.949773298970738  8.785000649550204 1.508458591726102 2.218545167109312  8.876981943354807 1.171868364188725 2.196514999487009  7.573683407230686 1.930914131683129 1.124837920521305  7.578822283671053 1.903918958192312 1.067678735460079  7.58390983009172 1.876772642627375 1.010346865643891  7.588982140591015 1.849545990394727 0.9528642383563317  7.594062164675286 1.822307317789062 0.8952403945726124  7.599193754906136 1.795055700045055 0.8374595926993131  7.604376650963666 1.767790218675168 0.7795105445516183  8.649345434657546 1.475232078862941 2.233320094402868  8.662698331538394 1.417576709224019 2.231401499013713  8.730400363340063 1.129212213803414 2.221498472413535  8.752879612485351 1.682959803461145 1.700281860557841  8.682492408494749 1.624445914097975 1.766172721728301  8.639107796299889 1.70266726322598 1.6494766269562  8.65473328507302 1.660831013468795 1.609796754147653  8.698288937933471 1.575558967047648 1.73512157806629  8.714306949672666 1.526931043582786 1.704049383050038  8.780477673391578 1.591458368555262 1.629480699635779  8.670515971262729 1.61927704803634 1.570129432464359  8.794344124129138 1.546023220420082 1.594143985518741  8.730411946958283 1.478446861461142 1.672992431397196  8.686371609579943 1.57786493215755 1.530516495879154  8.808133697630836 1.500683798653075 1.558908501041281  8.746463561823736 1.430031218642717 1.641990778984246  8.702191882899069 1.536520168086893 1.49097681139226  8.821729335452023 1.455407120676134 1.523812670479825  8.762314484779386 1.381608195598208 1.611077385934891  8.717868935368907 1.495193283046663 1.451514134717222  8.83510102955648 1.410168109029869 1.488897618080622  8.777778538516673 1.33313361419197 1.580321138281695  8.733206584498031 1.453899254490863 1.412123255828361  8.781075028593344 1.618105703770391 1.833016581986809  8.812240991359754 1.517236678734093 1.779859679021179  8.82801808533835 1.467092167352405 1.753241025798421  8.843761369244818 1.417031569649665 1.726667554357407  8.859341448118078 1.366996299175797 1.700178489004288  8.874501830866734 1.316910954720446 1.673795611090194  7.729702777949115 1.343935011219532 2.059199713053708  7.738703747261761 1.282580609022635 2.05239029746307  7.747707566779225 1.221244801811295 2.045675712373194  7.756686228105053 1.159919894409087 2.039002098250728  7.765637132258677 1.098605958598629 2.032349978344834  7.774549113757718 1.037307366980233 2.025704325684036  7.783369668365824 0.9760522094136164 2.01902977474659  7.618676361055299 1.321865150653029 2.093174674665458  7.581323294528962 1.318468222215314 2.190168639730596  7.49604268969036 1.30712419584968 2.083456507200572  7.503046115949081 1.244020075882678 2.078485745715247  7.589238348516179 1.256437322185033 2.191457133895004  7.627511680817328 1.259726657892316 2.088194035386787  7.509962483384237 1.180919510299473 2.073590353524115  7.597111691380663 1.194428023316054 2.192811869337457  7.636348830221239 1.197608292712189 2.083299043926825  7.516816303357513 1.117839286606421 2.068729093447122  7.604940412680103 1.132437806805446 2.194196261423165  7.645151211213049 1.135510682250982 2.078441441560621  7.523637847078282 1.05478410970241 2.063885037781668  7.612737877753093 1.070469621481041 2.195591917699571  7.653922285465412 1.073433617441006 2.07360305576347  7.530460917554707 0.9917579674032968 2.059044241578009  7.62051703825546 1.008524821836688 2.196985491898622  7.662656823031969 1.011380323575165 2.068769761271157  7.537325083269063 0.9287428398397379 2.054179810736489  7.628262589058715 0.9466037588594562 2.198372679182307  7.671289485063079 0.9493438360217352 2.06390162582861  8.585509807451009 1.624221397325291 1.709250309538033  8.60352974430624 1.577176832014221 1.675133112053111  8.621838794126171 1.530417721098764 1.641027069621771  8.640218716729324 1.483793312717663 1.606976822159865  8.658535246892473 1.437236567348491 1.572993790854215  8.676632328560043 1.390712188766235 1.539096509199834  8.694186569043255 1.344091413788022 1.505292616322271  7.563519509086447 1.327903595464919 2.005503959378972  7.571743551128085 1.265810494339793 1.995629182226125  7.579956878433658 1.203704906917883 1.985856035198847  7.588134661835814 1.141
[...]
<PointData  Vectors="f_16"> 
<DataArray  type="Float64"  Name="f_16"  NumberOfComponents="3" format="ascii">3.8351765871512324e-02 -1.5932331096700812e-02 5.7435301491397216e-03  3.8100737725591430e-02 -1.5668574998758227e-02 6.5246117212378251e-03  3.9303565440439940e-02 -1.5820177122749499e-02 6.2239552299477906e-03  3.9517529335793708e-02 -1.6022163413717195e-02 6.4025188567113939e-03  3.8360043502888720e-02 -1.5884289141603836e-02 6.6421212809563606e-03  3.8676999938182278e-02 -1.6156414618363920e-02 5.8957970764570633e-03  3.8643965657693929e-02 -1.6084603005630783e-02 6.7378369448415692e-03  3.9017920254955596e-02 -1.6356243661349395e-02 6.0254791996759739e-03  3.9751718996915590e-02 -1.6221126392858581e-02 6.5513408965474492e-03  3.8936197653490899e-02 -1.6272705568553120e-02 6.8238432690058718e-03  3.9361418820409715e-02 -1.6537835203209384e-02 6.1448252623548380e-03  3.9995242377748576e-02 -1.6413464252315602e-02 6.6862523859748469e-03  3.9225497384401065e-02 -1.6451390470128804e-02 6.9086734896126115e-03  3.9699535955850816e-02 -1.6705192412930604e-02 6.2629412910534896e-03  4.0239232171832090e-02 -1.6599977921617742e-02 6.8187696618705398e-03  3.9499842157027509e-02 -1.6623936116911611e-02 6.9997150760583993e-03  4.0025029036289878e-02 -1.6861570277465831e-02 6.3880506282655040e-03  4.0476137581256913e-02 -1.6783931742870194e-02 6.9586933893608181e-03  4.0329742517326676e-02 -1.7011085974621223e-02 6.5251613250943506e-03  3.9746589114914341e-02 -1.6794194717647596e-02 7.1050864979907121e-03  4.0699110357036709e-02 -1.6977803799779909e-02 7.1133868272120803e-03  4.1818038823407754e-02 -1.9262432439465193e-02 -2.8478022113177749e-03  4.3400125974862508e-02 -1.9726298165213950e-02 -2.9253033278902663e-03  4.2019626325858636e-02 -1.9486384801893304e-02 -3.8753685078535150e-03  4.2473329897759121e-02 -2.0118643997079501e-02 -3.9899450903235151e-03  4.3629688462009805e-02 -2.0401643820335533e-02 -2.9380392523747786e-03  4.2305903367349046e-02 -1.9891173201522963e-02 -2.8954760329045121e-03  4.2911063467525233e-02 -2.0621894848995674e-02 -3.9856878299939233e-03  4.3910728388388914e-02 -2.0946495445337398e-02 -2.8533806899680562e-03  4.2791337026092703e-02 -2.0381376649906888e-02 -2.8395948393085848e-03  4.3349426034565645e-02 -2.1036919013092278e-02 -3.8747990281348382e-03  4.4211473146499342e-02 -2.1407169728993446e-02 -2.6857347428882496e-03  4.3276975657704699e-02 -2.0784088131320010e-02 -2.6972292950686225e-03  4.3793995486940011e-02 -2.1394613444863472e-02 -3.6693625875483496e-03  4.4518000584586714e-02 -2.1811746835804505e-02 -2.4409158419610015e-03  4.3768705155081244e-02 -2.1130057058356532e-02 -2.4740825822964717e-03  4.4249932376897769e-02 -2.1715736280394849e-02 -3.3753009626331372e-03  4.4824963584471120e-02 -2.2177378257024753e-02 -2.1170577352736608e-03  4.4274504683265506e-02 -2.1441191168613712e-02 -2.1696648506418217e-03  4.4813133445884834e-02 -2.1935259779557254e-02 -3.0220457794835546e-03  4.5178696648763166e-02 -2.2480306935185487e-02 -1.7196078849448088e-03  4.4887284733045353e-02 -2.1669345505309072e-02 -1.7944911548671508e-03  4.0020195691594991e-02 -1.6264351643090581e-02 5.2590223153144875e-03  4.0269240825804235e-02 -1.6488332627517935e-02 5.4953278027756076e-03  4.0530431243412719e-02 -1.6697527905096887e-02 5.7008035594356271e-03  4.0797052257414701e-02 -1.6892037670342298e-02 5.8907161995419193e-03  4.1062953313977031e-02 -1.7074900897365224e-02 6.0770148451039065e-03  4.1323612992490349e-02 -1.7249993142124411e-02 6.2711822371579826e-03  4.1577003254546559e-02 -1.7423051504148020e-02 6.4839295885570454e-03  3.9086213124639557e-02 -1.6348915670254462e-02 4.8652256077486552e-03  3.9449957778463676e-02 -1.6592022089756839e-02 5.0693832065586211e-03  3.9817610068603335e-02 -1.6798724884262435e-02 5.2531323508620224e-03  4.0182258719327353e-02 -1.6981633165585121e-02 5.4255319080470377e-03  4.0540488588497445e-02 -1.7146041251274877e-02 5.5965067583225924e-03  4.0889391548327436e-02 -1.7295001959358802e-02 5.7738074973336358e-03  4.1228222624996425e-02 -1.7425759526752710e-02 5.9675110929147358e-03  2.7790226025190091e-02 -1.1278007726356476e-02 9.9951795111503667e-03  2.7912483194961174e-02 -1.1929654243825839e-02 1.0262552164460316e-02  2.9395188274140553e-02 -1.2711698789431958e-02 9.7409219428943195e-03  2.9928804886923368e-02 -1.2812881843743859e-02 9.3128604664881268e-03  3.1031845594243501e-02 -1.2199172148739819e-02 7.7208494149786861e-03  3.1317478542471959e-02 -1.1108854810006407e-02 7.2953993635846556e-03  3.2760940612188913e-02 -1.3072224059514699e-02 7.5635001259528201e-03  3.2155121432239982e-02 -1.3061668987403035e-02 7.9424057869585622e-03  4.3600325656181826e-02 -2.0041941236430900e-02 -4.3288360504021885e-03  4.3790225310687832e-02 -2.0716254368180011e-02 -4.4513985561660460e-03  4.4009803095080180e-02 -2.1252540450559469e-02 -4.4406517984038191e-03  4.4254991381603395e-02 -2.1710123797367316e-02 -4.3313418234878012e-03  4.4510216078947659e-02 -2.2115487644252762e-02 -4.1294328346212581e-03  4.4769549000603655e-02 -2.2486283878468107e-02 -3.8365456433574045e-03  4.5121272255986437e-02 -2.2756408607286199e-02 -3.4902575552470147e-03  3.3203486245622339e-02 -1.4646425905764090e-02 8.0985339485002130e-04  3.3450456964075219e-02 -1.4553936839581784e-02 1.8274696641406331e-03  3.5349067298431611e-02 -1.5840831851128237e-02 6.5383248235682400e-04  3.6440612123563934e-02 -1.5884652051378689e-02 7.9639664279961388e-04  3.4589803220799596e-02 -1.4440774235890640e-02 2.0089975643971191e-03  3.4395155833090399e-02 -1.4580387519362492e-02 1.0249312427096579e-03  3.5508737180993108e-02 -1.4559151355204037e-02 1.2703695628142897e-03  3.5682841155627226e-02 -1.4398153216596873e-02 2.2337151368961570e-03  3.7482435056860018e-02 -1.5953095203640945e-02 1.0091424422708985e-03  3.6564334073876430e-02 -1.4536405803754484e-02 1.5256244605044095e-03  3.6726865780446753e-02 -1.4353800557684676e-02 2.4658743517846798e-03  3.8470435886931151e-02 -1.6001449090701458e-02 1.2518810151645105e-03  3.7615569108957997e-02 -1.4514185790617487e-02 1.8052226057593285e-03  3.7771830210088196e-02 -1.4305548800257101e-02 2.7151390827491384e-03  3.9452325914113802e-02 -1.6034523861824780e-02 1.5310592588668695e-03  3.8705319986867236e-02 -1.4499741274729824e-02 2.1240227828687717e-03  3.8861734170466899e-02 -1.4255357615444634e-02 2.9940462298618299e-03  4.0465368722013534e-02 -1.6058238880937194e-02 1.8520698279515602e-03  3.9871926443275856e-02 -1.4488636013308845e-02 2.4984396939376680e-03  4.0036440483145697e-02 -1.4193300409076551e-02 3.3165032766456844e-03  4.1558620051604579e-02 -1.6058057876604716e-02 2.2208805934049850e-03  2.9055392285989835e-02 -1.1887255771029569e-02 9.3700070625427258e-03  2.9699434389711368e-02 -1.1834382293981404e-02 8.9196710850612936e-03  3.2921164727849617e-02 -1.1667164920196944e-02 7.0912010363175342e-03  3.5091428045133238e-02 -1.5972173557611425e-02 -6.7711104783789563e-04  3.6241263662471462e-02 -1.6058090073112253e-02 -5.3581022121151098e-04  3.7295630102372697e-02 -1.6145617779345218e-02 -3.3612252324136902e-04  3.8291017834545048e-02 -1.6214666669658286e-02 -9.2781399235270838e-05  3.9274294637717866e-02 -1.6274724837942092e-02 1.9853574397741620e-04  4.0281397971613321e-02 -1.6336023607644422e-02 5.4479478230485656e-04  4.1358279267418141e-02 -1.6401729177998658e-02 9.5806789960711227e-04  2.8521876937757731e-02 -1.2866148417700814e-02 1.0494209054474419e-02  3.1363315156204094e-02 -1.3617550847150880e-02 8.2921508435050400e-03  4.1889181671745303e-02 -1.9583997574727993e-02 -4.8839260757228518e-03  4.2319116660767077e-02 -2.0177264045993726e-02 -5.1003534489296740e-03  4.2739938225187048e-02 -2.0661274671415639e-02 -5.1785805495087349e-03  4.3160570047515438e-02 -2.1065101439815801e-02 -5.1366983542426997e-03  4.3582481706378934e-02 -2.1413228159002550e-02 -4.9894805745429906e-03  4.4006775484712067e-02 -2.1725538011558444e-02 -4.7422833704613004e-03  4.4523090736384704e-02 -2.1909273869708673e-02 -4.4335323150253136e-03  3.0271470421910449e-02 -1.3812292269761470e-02 1.0069363275868205e-02  3.0686190313138271e-02 -1.4040529765996507e-02 9.7612974577076621e-03  3.2984207699577141e-02 -1.4694729417130089e-02 8.3674984658194795e-03  2.6866853089500504e-02 -8.5211593712596085e-03 9.3755050548788074e-03  2.8053788929401659e-02 -1.0078129470145799e-02 8.9525357905898342e-03  2.7739516304954404e-02 -9.4758819014171460e-03 8.5061388291724580e-03  2.8671528079037972e-02 -9.1018761873953059e-03 8.2821988464903927e-03  2.8893962824015580e-02 -9.8075846113455708e-03 8.5897812743735615e-03  2.9694140814551132e-02 -9.6152575940319784e-03 8.2608273989398084e-03  2.8572631502031806e-02 -8.0023717851019725e-03 8.6863565446819221e-03  2.9565567229244225e-02 -8.8383887422758978e-03 8.0650168447242657e-03  2.9413341737622292e-02 -7.8496707539118145e-03 8.3254119919915683e-03  3.0489062849026066e-02 -9.4699467164701522e-03 7.9382720393907161e-03  3.0464325155038323e-02 -8.6423766381580457e-03 7.8372232811444020e-03  3.0283982728010809e-02 -7.7350294681278551e-03 7.9303108618307590e-03  3.1306581461323632e-02 -9.3483104030770217e-03 7.6012772435883526e-03  3.1392635094684075e-02 -8.4875609108274221e-03 7.5817185836072366e-03  3.1198339223020448e-02 -7.6439473339438777e-03 7.4859864055778066e-03  3.2167734218831373e-02 -9.2331166792683911e-03 7.2326072443588242e-03  3.2369233114011020e-02 -8.3501133811406079e-03 7.2827353770684609e-03  3.2157414160071618e-02 -7.5660247481820235e-03 7.0030526081758301e-03  3.3072084092171078e-02 -9.1319451963984676e-03 6.8079344406478072e-03  3.3410783151355844e-02 -8.2440648405435139e-03 6.9071757161468647e-03  2.7089573135872781e-02 -9.5735522204952357e-03 9.6963942281333287e-03  2.8563130573503570e-02 -9.1714720123327632e-03 8.8133278399039148e-03  2.9267942333745280e-02 -9.0506739733368421e-03 8.4022997891128083e-03  2.9983699998965215e-02 -8.9555047554007918e-03 7.9739526615545103e-03  3.0726185458621044e-02 -8.8761061428467049e-03 7.5049623707159566e-03  3.1512245749255166e-02 -8.8016724239712244e-03 6.9505554790967551e-03  4.0519215405166738e-02 -1.5879576940765191e-02 6.1005315075899364e-03  4.0690628158111780e-02 -1.6066582741714741e-02 6.3279978894071652e-03  4.0868303056016339e-02 -1.6262501786337088e-02 6.5210304738834730e-03  4.1053668500939840e-02 -1.6458939431609983e-02 6.6978952485803409e-03  4.1243193230693337e-02 -1.6654850640973558e-02 6.8716989597968929e-03  4.1435430688102425e-02 -1.6852391957235053e-02 7.0531540165705044e-03  4.1635758919116181e-02 -1.7061327645291072e-02 7.2508496047377991e-03  4.1592501558489002e-02 -1.5789890934805151e-02 6.2597966479220422e-03  4.1782922930396905e-02 -1.5397213301660172e-02 6.9081339321300835e-03  4.2813001316113673e-02 -1.5821573177527991e-02 6.1779380098760514e-03  4.2900020026807630e-02 -1.6000534454330941e-02 6.4543408415220060e-03  4.1866323422147578e-02 -1.5534435631482759e-02 7.1349833088638530e-03  4.1718058550647454e-02 -1.5967666284555058e-02 6.5087292289811530e-03  4.3011367451789524e-02 -1.6191511246512288e-02 6.6994385612509531e-03  4.1967752048037314e-02 -1.5696325533944403e-02 7.3352387998295828e-03  4.1849808154205269e-02 -1.6157281535161907e-02 6.7241787396202434e-03  4.3136916456034985e-02 -1.6395141532300095e-02 6.9286901880128114e-03  4.2081560265946380e-02 -1.5878854523717772e-02 7.5214837481645874e-03  4.1990963995217082e-02 -1.6356039680798830e-02 6.9239423720570143e-03  4.3269146859670586e-02 -1.6610933160284971e-02 7.1558296345088056e-03  4.2203010085451215e-02 -1.6078853973144801e-02 7.7052393600317674e-03  4.2138983236692698e-02 -1.6562672014778766e-02 7.1215905410238114e-03  4.3399992317156508e-02 -1.6836917667783613e-02 7.3921266961697232e-03  4.2328435632993405e-02 -1.6294832420064079e-02 7.8964058633399052e-03  4.2293189441081326e-02 -1.6776671050180283e-02 7.3292826092395246e-03  4.3520333309778926e-02 -1.7064580183959521e-02 7.6479417592648794e-03  4.2460077548877234e-02 -1.6528119574715748e-02 8.1048579588693347e-03  4.2458623071100828e-02 -1.6993187536454887e-02 7.5596340987671793e-03  2.9168964832256589e-02 -1.0796543901596432e-02 8.1082258628314852e-03  3.0050830516194366e-02 -1.0495500039319091e-02 7.8338625059245076e-03  3.0887767874410367e-02 -1.0279451253390233e-02 7.6061835420922052e-03  3.1727317380299921e-02 -1.0109307357691156e-02 7.3831208992398596e-03  3.2595616020947793e-02 -9.9656788830559291e-03 7.1440591415563599e-03  3.3511614080355204e-02 -9.8325693239955658e-03 6.8708532933770688e-03  3.4512515403204450e-02 -9.6781379984479474e-03 6.5561799194488596e-03  4.2276319974409199e-02 -1.6147167584722680e-02 5.5677689412572118e-03  4.2407212153390751e-02 -1.6363926854535176e-02 5.8574673658460842e-03  4.2547347821611098e-02 -1.6578261775267143e-02 6.1090189132299603e-03  4.2696796986123539e-02 -1.6794693048895457e-02 6.3424865508129313e-03  4.2852428542285333e-02 -1.7013329556363119e-02 6.5735626855800587e-03  4.3011277054256447e-02 -1.7233082180357091e-02 6.8155203506266131e-03  4.3175198018989544e-02 -1.7450638009747825e-02 7.0800694864649148e-03  2.8676240693263400e-02 -1.0262441019455415e-02 7.4205948071419435e-03  2.9986879609852340e-02 -1.1440058669751191e-02 7.1814061026598958e-03  3.0675206661887968e-02 -1.2070646831575545e-02 6.2448905321379903e-03  3.1656856347861924e-02 -1.1760125454382037e-02 6.1648774588146937e-03  3.0930920519868687e-02 -1.1154487662100062e-02 6.9955510428361513e-03  2.9658785858949519e-02 -9.8844892250502959e-03 7.3223939237650011e-03  3.2614667437071518e-02 -1.1547875763384677e-02 6.1273223528422209e-03  3.1854445196678453e-02 -1.0946710051258152e-02 6.8557636626370710e-03  3.0618982529040748e-02 -9.6228533529596760e-03 7.2306745093050091e-03  3.3587895745495644e-02 -1.1397795538387412e-02 6.1008872753200482e-03  3.2787655340228927e-02 -1.0796726993414104e-02 6.7297230496361380e-03  3.1597192521895398e-02 -9.4383202729988215e-03 7.1254939491294210e-03  3.4587721862158305e-02 -1.1269784783043692e-02 6.0600643663822999e-03  3.3756022500251157e-02 -1.0679681660439816e-02 6.5903544976464523e-03  3.2605727695892442e-02 -9.2864948829567955e-03 6.9835906876498195e-03  3.5638632688869860e-02 -1.1141200904495016e-02 6.0012243165170585e-03  3.4779418653110745e-02 -1.0569892223008153e-02 6.4248138788385190e-03  3.3669439057396590e-02 -9.1437690992013723e-03 6.8023249981539590e-03  3.6778069469211749e-02 -1.1001842034308847e-02 5.9183150553597658e-03  3.5868568974390426e-02 -1.0447890955511501e-02 6.2283392170628844e-03  3.4817744440488803e-02 -8.9942986549291226e-03 6.5860351073043413e-03  3.7166058382209662e-02 -1.7058885307875037e-02 -9.3678395466642919e-04  3.8188803725413834e-02 -1.7281985760876188e-02 -8.4169684191331669e-04  3.9135411975408374e-02 -1.7466772149428877e-02 -6.6503871037642257e-04  4.0031726276425247e-02 -1.7613670128991659e-02 -4.3111214126761391e-04  4.0922277585138944e-02 -1.7734760629194043e-02 -1.3909971736889313e-04  4.1840728896808600e-02 -1.7840604045316750e-02 2.1336140692638074e-04  4.2853004031957791e-02 -1.7907440390181797e-02 6.2363224775639195e-04  2.9615587411816649e-02 -1.1281783331286788e-02 6.0529657850549486e-03  3.0658279422125258e-02 -1.0910494628827552e-02 6.0883058309818775e-03  3.1682429834835137e-02 -1.0667070454387870e-02 6.1269840164211442e-03  3.2713660702208110e-02 -1.0492443202676440e-02 6.1493046441184612e-03  3.3764754053675121e-02 -1.0335605537378731e-02 6.1429028928634026e-03  3.4876273611169385e-02 -1.0181310765473673e-02 6.1091667201125617e-03  3.6101118705816927e-02 -1.0024927009958112e-02 6.0443863695931986e-03  4.3280372583016452e-02 -1.6403068952753549e-02 5.1626691487150021e-03  4.3382579677242988e-02 -1.6637569220204384e-02 5.4924937606017831e-03  4.3494717777442883e-02 -1.6866370624118384e-02 5.7843715701350372e-03  4.3618099732156038e-02 -1.7094214612492251e-02 6.0571573453407496e-03  4.3747846328849822e-02 -1.7323066001019925e-02 6.3267269723682748e-03  4.3878957991165708e-02 -1.7553103993286238e-02 6.6074068450961863e-03  4.4012890864229569e-02 -1.7784408391111676e-02 6.9092659855172133e-03  3.0380725761910754e-02 -1.2052190879071866e-02 4.8405285675880323e-03  3.1773555857063783e-02 -1.2992780709359534e-02 4.8355355677696119e-03  3.2103359796284536e-02 -1.3433651288856357e-02 3.3813221583348188e-03  3.3219860464083893e-02 -1.3201786188972036e-02 3.5351363684568851e-03  3.2807361993081936e-02 -1.2708263816321419e-02 4.8700572438524709e-03  3.1464538598941681e-02 -1.1709832964584325e-02 4.9739431514352218e-03  3.4319422040029822e-02 -1.3085503547918194e-02 3.7309870771901938e-03  3.3816547975244589e-02 -1.2528501178529917e-02 4.9572136241114902e-03  3.2530469395522434e-02 -1.1493161921402539e-02 5.1195123684224545e-03  3.5381102028869120e-02 -1.2981397700244361e-02 3.9101879952988961e-03  3.4832358078263570e-02 -1.2400588490424989e-02 5.0492049821109662e-03  3.3576604181743845e-02 -1.1320770612233992e-02 5.2417085502910500e-03  3.6453096632279414e-02 -1.2879450813999306e-02 4.0866858780121678e-03  3.5860570719153946e-02 -1.2277674391378919e-02 5.1269542813839972e-03  3.4640748836936845e-02 -1.1159054290260099e-02 5.3396983982284367e-03  3.7583255332800089e-02 -1.2768995602530251e-02 4.2733399382279633e-03  3.6942379841381150e-02 -1.2147156943658735e-02 5.1973096607752841e-03  3.5774022328166337e-02 -1.0994884157274128e-02 5.4214571923185640e-03  3.8813349388257132e-02 -1.2639690066375230e-02 4.4861784172376979e-03  3.8119521700650333e-02 -1.1996553265881964e-02 5.2733565113811326e-03  3.7035072215843366e-02 -1.0815296406322915e-02 5.5024037961870888e-03  3.3636471336547069e-02 -1.4410474041285480e-02 3.3333503131912062e-03  3.4667165097113227e-02 -1.4255681091880013e-02 3.4218321108364065e-03  3.5691357748163843e-02 -1.4191975646721481e-02 3.5768749939655911e-03  3.6695612947277467e-02 -1.4137388334335541e-02 3.7408033828593432e-03  3.7700374133884017e-02 -1.4076459692831948e-02 3.9096666385557569e-03  3.8746431651579268e-02 -1.4002117073696089e-02 4.0948376118450118e-03  3.9865376776488236e-02 -1.3908264687400433e-02 4.3085581065270395e-03  4.4377259931326470e-02 -1.6747111038578889e-02 6.5614536570772876e-03  4.4489856764752415e-02 -1.6977976940842007e-02 6.8252943570578503e-03  4.4598477367211016e-02 -1.7218557950275645e-02 7.0950318816163163e-03  4.4690633834949783e-02 -1.7466099740732779e-02 7.3777927362309592e-03  4.1354931304677940e-02 -1.8112788774151664e-02 1.2970642953855787e-03  4.2547590642549253e-02 -1.8734269586582055e-02 4.0748723176495250e-04  4.1180619093191213e-02 -1.8486512640613420e-02 9.2540626158076308e-05  4.1737010667204033e-02 -1.8978998160318002e-02 2.9315139195523239e-04  4.2889584212135456e-02 -1.9250586364972774e-02 6.7416866068486408e-04  4.1795831838021456e-02 -1.8555589137433329e-02 1.5781963275048872e-03  4.2262029432176509e-02 -1.9361373289728308e-02 5.2561521342913851e-04  4.3231951792769875e-02 -1.9657728640749095e-02 9.5233013654612926e-04  4.2231160122035538e-02 -1.8907286334982825e-02 1.8526523523767692e-03  4.2772686337042100e-02 -1.9669336273217583e-02 7.9582486091388141e-04  4.3576337451914832e-02 -1.9993577922158664e-02 1.2540990141792433e-03  4.2658812269094043e-02 -1.9192373472420796e-02 2.1401233727127945e-03  4.3274721280738636e-02 -1.9925621436309580e-02 1.1076577068298897e-03  4.3914816492915835e-02 -2.0280307818145334e-02 1.5893133186278782e-03  4.3077108636893437e-02 -1.9430107902071326e-02 2.4514551060413597e-03  4.3770716827737026e-02 -2.0143877468157434e-02 1.4663513468010159e-03  4.4241259478710340e-02 -2.0532085430516028e-02 1.9665119240743706e-03  4.3485278202564683e-02 -1.9632688340667309e-02 2.7948872222875376e-03  4.4259583933392521e-02 -2.0336159714677823e-02 1.8810638397554606e-03  4.4550042843131139e-02 -2.0760713762122074e-02 2.3900060155374681e-03  4.3882951372897154e-02 -1.9806564992990241e-02 3.1769381546483486e-03  4.2872414477030857e-02 -1.5409407632510771e-02 7.2932991332180352e-03  4.2966502586173780e-02 -1.5566463892471374e-02 7.4952008509937898e-03  4.3075736036780554e-02 -1.5750256116493