<?xml version="1.0"?>
<VTKFile type="UnstructuredGrid"  version="0.1"  >
<UnstructuredGrid>
<Piece  NumberOfPoints="952" NumberOfCells="4002">
<Points>
<DataArray  type="Float64"  NumberOfComponents="3"  format="ascii">9.005737634189856 2.662190528908788 0.7723461938831596  9.084451090602613 2.726760354965029 0.7262646939947003  9.008043840628719 2.785865873367932 0.6805762647790377  9.004752948517082 2.697252218387885 0.8251382351072292  9.085356948715509 2.69359514032057 0.6704365090126344  9.006841085146839 2.627383971758307 0.719437003206412  9.009230397931196 2.753189833045593 0.6223860831935671  8.305618931698151 2.437596726836075 1.136657103369128  8.210760883467648 2.376532609860462 1.123834859305424  8.245503399695226 2.509216825462968 1.078048599523687  8.265887319538253 2.485063386867563 1.027707646523515  8.231995623221341 2.354360038078393 1.074157730992279  8.326123310864117 2.414487322975192 1.087466876181903  8.346943641936415 2.391334013418923 1.038511361230087  8.25357913382863 2.33217968003205 1.024691101751453  8.286561723710847 2.46088001826117 0.9775931213226514  8.367909066074732 2.368195192328478 0.9897336669876637  8.275321918472695 2.310023939304246 0.9753578403807358  8.307374470301577 2.436707757164487 0.9276189890802244  8.388868600134094 2.345105814910148 0.9410618466260517  8.29705729271126 2.287909844346782 0.926084461623786  8.328181595813639 2.412573907803214 0.8777236645934708  8.409640278283465 2.322094666690491 0.8924143335925451  8.31859437079555 2.265834881063811 0.8767928954715665  8.348827014309174 2.38849829605071 0.8278331544687185  8.429927369203199 2.299126908727474 0.8436902597669693  8.339665234843554 2.243714226719836 0.8273842286329044  8.369075514718832 2.364445447135188 0.7778836751048661  9.000711149869074 2.83767445648032 1.037110542082258  8.880870545798976 2.899668289604016 0.9942968073626226  9.00257713282733 2.949979667718978 0.9715234459800299  8.882790196043876 2.867547058150486 0.9371389813380175  9.001778035516782 2.802820622614381 0.9838453316914378  9.003738622348529 2.917445577691455 0.9131358420170691  8.884685532769161 2.835178638475659 0.8801795234448366  9.002809496475955 2.767707440580363 0.9308092620318847  9.00483688066152 2.884612512838711 0.8549033258405183  8.886544996414328 2.802697155851299 0.8233541392721412  9.003794465369024 2.73247061508124 0.8779307273165275  9.005898949728728 2.85165501749769 0.7967643709005591  8.888374559447191 2.770207176432746 0.766613542042348  9.006952612769849 2.818706249407749 0.7386751878168047  8.890223412425486 2.737837664392813 0.709888700418765  8.892195276637361 2.705696217547315 0.6530979335962824  8.134033103556552 2.472916088419065 1.048689527897003  8.155020676193143 2.449742987836728 0.997560486013961  8.176319630293458 2.426567572779487 0.9465924480265687  8.197761537437239 2.403410809631511 0.8957139500780704  8.219200967709458 2.380281987425977 0.8448654613600289  8.240480681730372 2.357166542598667 0.7939900454746847  8.261401364276262 2.333977218367616 0.7430391667422799  8.65480152991363 2.804984694117684 0.7278785756374202  8.778348656903416 2.782490965076112 0.7514691640132927  8.724837695850695 2.879131876027213 0.6960348356574191  8.7736249955712 2.813055140660328 0.8094206370731039  8.729944773902224 2.85389719483192 0.6335192115692294  8.661790601830644 2.776680226660018 0.6684083807187022  8.783086326701907 2.752041555911225 0.6935618388120952  8.735095210260354 2.828847956724404 0.5709983722715537  8.668801671868287 2.748590624954375 0.6089370791146601  8.787900876235529 2.721843916109468 0.6356296302257294  8.759381886919138 2.904293554208575 0.9840416912954976  8.692627748846236 2.820396590730952 1.031573622689377  8.626830271431487 2.918088393777086 0.9667385153313008  8.699309886039057 2.787637271863609 0.9775939141057579  8.764122423356286 2.874060402292887 0.9256547402479447  8.633784496826729 2.890017406701415 0.9067898502238135  8.706051100721997 2.754684308870678 0.9238596525458487  8.768877903333449 2.843605018804088 0.8674673675796505  8.640786729268735 2.861741225058967 0.8470271015490106  8.712805681935128 2.721652949850719 0.8703043221446942  8.647800186216646 2.833369918721152 0.7874034968424999  8.719538001338773 2.688631600639126 0.8168706338097688  8.726235116272266 2.655719855692598 0.7634933206888138  8.732945403725731 2.623098544191173 0.7100898376556429  8.924305214358634 3.016776003933419 0.9363094274901529  8.922634654025346 2.988559952666979 0.8735740735007989  8.9208782263086 2.960063421888137 0.8109379620771247  8.91907692087616 2.931439645157235 0.7483696980354466  8.917264007051301 2.902800412468647 0.6858464789269973  8.915504635032798 2.874242908712131 0.6233324545524962  8.913956108706506 2.845843220660969 0.560771183913346  7.791810683480469 2.455633156735022 0.9357794172773297  7.763415218837585 2.360539852025566 0.9689824047414825  7.649167272342809 2.401352040697841 0.9258245031846253  7.660466316685352 2.377906629964961 0.8678557877103177  7.778127483448012 2.336741846726024 0.9133150219925097  7.807067973626362 2.433202385520922 0.8789807367162445  7.671834633537833 2.354560575907408 0.8096823527687232  7.793030876773267 2.313016370776336 0.8574945169393816  7.822493180636093 2.41086324509821 0.8220647573990675  7.683246118444786 2.331205142721842 0.7513865001498393  7.808012057184181 2.289277595584179 0.8015773137155549  7.837987793051381 2.388508517258253 0.7650721589891575  7.694661868934222 2.307742440012249 0.6930060031365229  7.822984194293552 2.265451317344752 0.7455811873498956  7.853473807298528 2.366064903672807 0.7080202393201822  7.706084265318697 2.284103787651047 0.6345578542319497  7.837892216497607 2.241480281635605 0.6894983886875171  7.868909101270495 2.343480239800865 0.6509071630953946  7.717538561033838 2.260237422774019 0.5760531033462037  7.852760802273172 2.217271699696043 0.6333289178796019  7.884302008741065 2.320686796799289 0.5937216827035011  7.674492196639685 2.513231050694638 0.8883583318028311  7.686558433507233 2.491466649989625 0.8289972262913518  7.69868779233375 2.469828649808956 0.7694455780625494  7.710847259139709 2.448168192508672 0.7097831195140472  7.723011050247581 2.426403679444539 0.6500519189869269  7.73519238985786 2.404475904619869 0.5902816623442636  7.747396635260458 2.382324097726066 0.5304843280059914  7.778399453806268 2.551773318984294 0.8971864244453256  7.793007565507498 2.530879180056191 0.8384942082479158  7.807736646891238 2.510064633052083 0.7796605861925299  7.822518419065073 2.489225949171565 0.7207450671103566  7.837305935212329 2.468312272090426 0.6617814640995107  7.85206972186723 2.447272234261938 0.6027842639753866  7.866807248951844 2.426035738732293 0.5437620026606503  8.812677774280944 2.964310420050706 0.892442068870002  8.81498336674605 2.937337645536226 0.8304204451737935  8.817269756110697 2.910227764555902 0.7684808977577542  8.819537611196823 2.883063748920181 0.706604066508253  8.821833893186032 2.855944497500709 0.6447408420737085  8.824243708717022 2.828999406705544 0.5828625789457376  8.656877247734389 2.642353599509046 1.135778512343985  8.551643646470774 2.607757546043326 1.134708912795387  8.622366310451055 2.725292676421732 1.076156905911098  8.632324920862798 2.693490284586971 1.02452570283136  8.564664314789425 2.578651407838798 1.085362442204406  8.666196257331361 2.610794300516967 1.086712692723889  8.642388404522517 2.661548463704356 0.9731824355556683  8.577848492892812 2.549435016470689 1.036273601666172  8.675630437429103 2.579111451691129 1.037909547856906  8.652490720282376 2.629560775446691 0.922044913174605  8.591105048705362 2.520187888471965 0.9874087408556567  8.685109170399459 2.547391256269032 0.9893241945219544  8.662575614630336 2.597616376625835 0.8710510496532267  8.604356246146518 2.490989852481631 0.938701091492484  8.694570090554496 2.515729580321165 0.9409054203875019  8.67258578338391 2.565819673635358 0.8201434485649367  8.617492398917745 2.461921292376049 0.8900868968159565  8.703927679005647 2.484222597515416 0.8926011050955445  8.682505529523731 2.534348978561495 0.7692261183581064  8.630391340309311 2.433151103381359 0.8414800416217312  8.71316426995617 2.453091914314219 0.8443073610017592  8.207328849189709 2.59590427500849 1.022262965121642  8.227352141393345 2.571457295385828 0.9699949474416264  8.247642617758144 2.546969195752479 0.9178984536832218  8.268055223925131 2.522479817531377 0.8659187985671136  8.288467134397896 2.498014486878652 0.8140028432842722  8.30875665399866 2.473592154891935 0.7620929600535313  8.328738569362562 2.449178395522789 0.7101475300874209  8.659675026387971 2.55925861245671 1.188908486142513  8.670047858566569 2.53046165206439 1.140530548032213  8.68054967697238 2.501560273210545 1.092422376997082  8.691114312527773 2.4726330004506 1.044549532392621  8.701668686670438 2.443759624187404 0.9968604765367659  8.712110701605779 2.415035199783221 0.9493035457881033  8.722335940231689 2.386673344580793 0.9017849060257753  7.683384574215961 2.291253904235464 0.9789015139441088  7.695234634262999 2.266709381156814 0.9225885117670045  7.707194179010024 2.242220882627455 0.8660843404323731  7.719210275984819 2.217714887209673 0.8094632089069057  7.731231850315132 2.193129534391133 0.7527429217138567  7.743218413138465 2.168388109076912 0.6959162636191744  7.755222352310818 2.143414587994108 0.6389862209601419  8.860492094895781 2.719552628102047 1.112334015305714  8.904737621558333 2.809237068624609 1.0562609449727  8.975124661946669 2.748257485378734 1.098915711906124  8.976733675045963 2.71318463964076 1.048981821823106  8.907057177464681 2.774142056351579 1.004282839414329  8.86481301783332 2.68590297731351 1.062553579903079  8.978334156251794 2.677924334793896 0.9993334145692845  8.909366444512731 2.738834124939794 0.9525724550875044  8.869165171070319 2.652069789038003 1.01303198564419  8.979911781935625 2.642586567277587 0.9498870557233506  8.911653055739281 2.703434151640005 0.9010396488054122  8.8735
[...]
<PointData  Vectors="f_16"> 
<DataArray  type="Float64"  Name="f_16"  NumberOfComponents="3" format="ascii">2.3510651073922306e-02 -5.0006219875489335e-03 4.7853699804817039e-03  2.2510500735394571e-02 -4.8285013855760240e-03 4.0981728937824332e-03  2.3304318819975009e-02 -5.6708657368010496e-03 2.6720770715181635e-03  2.2862743763522930e-02 -4.1640326909391321e-03 4.7123547043585448e-03  2.3064534039656456e-02 -5.7694404749932659e-03 4.1822842111087395e-03  2.4132514674461553e-02 -5.9313860994832752e-03 4.8897517824658277e-03  2.3875471676365227e-02 -6.5650855405327531e-03 2.7266649726739867e-03  2.6431449173091131e-02 -1.0282916231552194e-02 9.1819441564500699e-05  2.8274655070700490e-02 -1.2005902135380187e-02 -1.1386177230708284e-03  2.7298752987955165e-02 -1.1126255810482695e-02 -1.3619020321167423e-03  2.8629687196829439e-02 -1.1199793619631566e-02 -1.0326085692649886e-03  2.9635175742239773e-02 -1.2027537869265402e-02 -8.1133847242090284e-04  2.7740696759403938e-02 -1.0336328503808631e-02 4.9242527478910694e-04  2.8936590468180087e-02 -1.0414728131476134e-02 8.3029910515021400e-04  3.0855078832376696e-02 -1.2070733382202428e-02 -5.1299889118152904e-04  2.9829864725749135e-02 -1.1304886630513588e-02 -7.4830593035958299e-04  3.0081271622509950e-02 -1.0505939770292089e-02 1.1313783169791811e-03  3.2004373787955835e-02 -1.2125478513706309e-02 -2.2571602039996516e-04  3.0967581751129653e-02 -1.1419234971238175e-02 -4.8188677046731197e-04  3.1230991136808901e-02 -1.0605323237325520e-02 1.4188513335047952e-03  3.3148486001554532e-02 -1.2180985154885620e-02 7.2686536082509792e-05  3.2103651283955245e-02 -1.1534962264902481e-02 -2.1219266422042206e-04  3.2451009284337924e-02 -1.0707351970618947e-02 1.7135705215758318e-03  3.4351496120214216e-02 -1.2222476079149489e-02 4.0594711698430027e-04  3.3299204879530711e-02 -1.1642017416828380e-02 7.9835861354303662e-05  3.3815809694837218e-02 -1.0800805914975694e-02 2.0292125267063676e-03  3.5681278498027366e-02 -1.2229438272603414e-02 7.9755696280999508e-04  3.4602065153304960e-02 -1.1711729803300319e-02 3.8916135708717120e-04  2.0225712553778866e-02 -1.3141490859868877e-03 4.0559369845765518e-03  2.1181627428395366e-02 -2.7630880675733466e-03 2.4566282412331396e-03  2.0349452904622721e-02 -1.7803403052633383e-03 2.3388874390199944e-03  2.1949023176351942e-02 -3.4512351814148254e-03 2.5984579190369591e-03  2.0908417444276999e-02 -2.0087377355981224e-03 4.3214915712226753e-03  2.0961360712004273e-02 -2.5665426509868957e-03 2.4766692594616691e-03  2.2670887718628324e-02 -4.1316198644202884e-03 2.6868698478356621e-03  2.1557521202623556e-02 -2.6973745256854173e-03 4.5074343427883561e-03  2.1548607899648194e-02 -3.3167195306926739e-03 2.5702698470965466e-03  2.3392172633221062e-02 -4.8149299963297096e-03 2.7297628197527480e-03  2.2209250136904526e-02 -3.4062765925362021e-03 4.6288856116475713e-03  2.2135191892839884e-02 -4.0618032489544006e-03 2.6178372145301411e-03  2.4111417225006791e-02 -5.5378454167558022e-03 2.7474061170960637e-03  2.2722662972706389e-02 -4.8390195037940655e-03 2.6433999456151164e-03  2.4823668340004896e-02 -6.3272365583879149e-03 2.7585646316717668e-03  2.5504930523162276e-02 -7.2047880947693124e-03 2.7757946763178150e-03  2.9385462718654106e-02 -1.2958367710150749e-02 -2.9207522415567212e-03  3.0730958957608037e-02 -1.3008505386437164e-02 -2.6983530597769981e-03  3.1920391807410207e-02 -1.3079791659076622e-02 -2.4740509788041855e-03  3.3031446260283821e-02 -1.3157546213303409e-02 -2.2349503465200825e-03  3.4127284679176147e-02 -1.3226439972685123e-02 -1.9646609173780034e-03  3.5268746774833819e-02 -1.3266358788421438e-02 -1.6444919260116587e-03  3.6494099335344567e-02 -1.3224508946462394e-02 -1.2766213988500703e-03  2.6733443147438085e-02 -7.6981776881232455e-03 3.2716525485486727e-04  2.5343590231121583e-02 -6.5312883370976576e-03 1.7364653150331395e-03  2.5697662637859147e-02 -7.1328008049454964e-03 -1.7424712466430475e-05  2.4563308849376332e-02 -5.8823994029323368e-03 1.7409050514306768e-03  2.6411744095117158e-02 -7.7778431247169759e-03 -1.2410232459609914e-04  2.7586775063060929e-02 -8.3026202685877286e-03 2.8465532360707742e-04  2.6120576746735503e-02 -7.2483018384254302e-03 1.7210546638343092e-03  2.7138181359590660e-02 -8.4886772547793869e-03 -2.3960226121155055e-04  2.8462636679622386e-02 -8.9854985121559060e-03 2.2552406638062371e-04  2.6895272550971610e-02 -8.0527788707228098e-03 1.7057492332961317e-03  2.2092372349919613e-02 -4.0600512507900062e-03 1.5662941076893748e-03  2.2250460175498251e-02 -4.5550606957652793e-03 2.0686594318931415e-03  2.3193856632432411e-02 -5.5619452363642871e-03 3.2803598224878606e-04  2.3299783874165651e-02 -5.0204665621605910e-03 2.2774914694257877e-03  2.2983785767310319e-02 -4.6560403948587605e-03 1.6697425444334056e-03  2.4192026655157697e-02 -6.0737955377446855e-03 3.6909064586681601e-04  2.4214857594743854e-02 -5.5537792099419961e-03 2.4384247807592904e-03  2.3778726908698877e-02 -5.2687590550597289e-03 1.7243928931832703e-03  2.5055516988357760e-02 -6.6119575543703100e-03 3.7722288467763380e-04  2.5114359012074493e-02 -6.0927871147812710e-03 2.5481195612688150e-03  2.5895586345005567e-02 -7.1437648149682729e-03 3.5982966911418646e-04  2.6016411364610099e-02 -6.6684888713596643e-03 2.6256430911933493e-03  2.6934820889103192e-02 -7.3124793504913852e-03 2.6833844371060146e-03  2.7879515380221317e-02 -8.0696174073571336e-03 2.7143695746332927e-03  2.1037918729765369e-02 -2.7458360763638135e-03 1.0601777221668570e-03  2.1657414148118496e-02 -3.5266277379896742e-03 1.0283682869165315e-03  2.2275159072211267e-02 -4.2671474840807458e-03 9.7941470646922065e-04  2.2898976215634019e-02 -4.9940253893760852e-03 9.0902748913056458e-04  2.3521513249271396e-02 -5.7403229692202734e-03 8.2854900793752156e-04  2.4119098657924977e-02 -6.5331514224875832e-03 7.5073934110398929e-04  2.4611092016143591e-02 -7.3900069947990307e-03 6.9874447254433347e-04  3.5838856494971399e-02 -1.7125285254562327e-02 -6.9964429138742916e-03  3.6711112273167701e-02 -1.7641205270321023e-02 -6.8670717779652979e-03  3.8449742696446680e-02 -1.8438289980949506e-02 -7.7843202185166041e-03  3.9173909706952038e-02 -1.8683758300112024e-02 -8.1417141697964698e-03  3.7656574511970610e-02 -1.7866475701661704e-02 -7.1007504497226214e-03  3.6816464756965657e-02 -1.7276883958972363e-02 -7.2347904283152995e-03  3.9826675335682973e-02 -1.8887632568547627e-02 -8.3368461211665180e-03  3.8499121096984182e-02 -1.8050398867964883e-02 -7.1961777964129701e-03  3.7686890523304296e-02 -1.7405377087645123e-02 -7.3377788265397694e-03  4.0428506620791331e-02 -1.9047048203053269e-02 -8.3958490891554126e-03  3.9276304743151851e-02 -1.8197230371083301e-02 -7.1749254475352731e-03  3.8488678295951741e-02 -1.7505091709355592e-02 -7.3310552260751451e-03  4.0994601516859366e-02 -1.9158282103088640e-02 -8.3384906266797971e-03  4.0012370416539871e-02 -1.8305473424288357e-02 -7.0479563104275181e-03  3.9249918222998316e-02 -1.7564736772649917e-02 -7.2256853930268844e-03  4.1520644218691012e-02 -1.9206424694126534e-02 -8.1830668029833492e-03  4.0716151005573548e-02 -1.8370242575801370e-02 -6.8196725622714678e-03  3.9986533271780755e-02 -1.7558321948727657e-02 -7.0250676810234463e-03  4.2045356656883470e-02 -1.9064022081826948e-02 -7.9899464517839917e-03  4.1411451354229037e-02 -1.8262116911366203e-02 -6.5313888426573492e-03  4.0676395045187150e-02 -1.7405174299080933e-02 -6.7583668113219550e-03  3.7541396847960623e-02 -1.7890371477050682e-02 -7.9377372930850947e-03  3.8293374208940821e-02 -1.8033494598161188e-02 -8.3118676273483266e-03  3.8968841584137624e-02 -1.8156356188915954e-02 -8.5276314919411587e-03  3.9590631773197764e-02 -1.8250056051972996e-02 -8.6123366755557589e-03  4.0175941921661094e-02 -1.8302343657031730e-02 -8.5882410383953476e-03  4.0720244431722161e-02 -1.8283100533793933e-02 -8.4757942237513838e-03  4.1224765746067649e-02 -1.8104941970122797e-02 -8.3132322762360673e-03  3.5650630368171773e-02 -1.6900439838957806e-02 -7.3255062423545911e-03  3.6579913164572875e-02 -1.6994455973512707e-02 -7.6120738001897734e-03  3.7402531558238174e-02 -1.7079913212976756e-02 -7.7620295950949301e-03  3.8157927285672848e-02 -1.7144617085167624e-02 -7.8030100813499077e-03  3.8875884743262083e-02 -1.7171222456618583e-02 -7.7502666779071224e-03  3.9566070606785769e-02 -1.7122546806476322e-02 -7.6149714190941473e-03  4.0206679560514574e-02 -1.6922206276563542e-02 -7.4121254425144030e-03  2.2518868524745606e-02 -4.3286852834321351e-03 8.3909799063873502e-04  2.3207766446992420e-02 -4.9916237896305612e-03 7.9393326099480121e-04  2.3887328296524967e-02 -5.6354011883825595e-03 7.2567464174247409e-04  2.4559456858479833e-02 -6.2965091018962150e-03 6.5018229467656930e-04  2.5215051945445321e-02 -7.0017617229263338e-03 5.7710550360080902e-04  2.5826199779847851e-02 -7.8139745823017238e-03 4.4282239813370829e-04  2.2010041910531887e-02 -4.6689365675147846e-03 3.8028424181065566e-03  2.2919411093658967e-02 -6.1321920732054476e-03 2.7351184635423099e-03  2.2575144821804935e-02 -5.2651659052325014e-03 2.4254867427903112e-03  2.3735719694717980e-02 -5.6180836614303422e-03 2.7010835051150487e-03  2.4160328754778387e-02 -6.3496083868903796e-03 3.0726812104847389e-03  2.3171161377136481e-02 -4.9560824513154890e-03 4.1171111044613152e-03  2.4745461625730540e-02 -6.0459837927261178e-03 2.9272770807348700e-03  2.5245597530831689e-02 -6.6536450825638981e-03 3.3631603840814134e-03  2.4192988901075029e-02 -5.3319539048255014e-03 4.3816528512935085e-03  2.5734531095131477e-02 -6.4880644228802135e-03 3.0977637315614203e-03  2.6306524924114838e-02 -6.9708464512930664e-03 3.5970220252889134e-03  2.5196888829098273e-02 -5.7332301329130683e-03 4.5836155967302625e-03  2.6730409055222615e-02 -6.9704087290130791e-03 3.2276201111123269e-03  2.7379242023880597e-02 -7.3192858099193668e-03 3.7852385773555473e-03  2.6212138854488837e-02 -6.1807440935615215e-03 4.7323449772547913e-03  2.7759895731972118e-02 -7.5250754742244002e-03 3.3263147811251458e-03  2.8504140517389451e-02 -7.7250377555235124e-03 3.9364949989719785e-03  2.7267202345857243e-02 -6.7076057845333265e-03 4.8349882654497968e-03  2.8845590393441093e-02 -8.1879535687345711e-03 3.4048499591626917e-03  2.9727069321181888e-02 -8.2299872833272603e-03 4.0457630143777732e-03  2.8375027931587117e-02 -7.3517908190210268e-03 4.9079858827852530e-03  2.7897062210969544e-02 -1.1499442819893808e-02 -2.4445368425708015e-03  2.9186021067658673e-02 -1.1614292027759779e-02 -2.1892992504255119e-03  3.0343114188684059e-02 -1.1749410460960487e-02 -1.9745295956570780e-03  3.1436980276358745e-02 -1.1886343862301646e-02 -1.7647554221945597e-03  3.2525136097502690e-02 -1.2017148859179384e-02 -1.5408506133943072e-03  3.3664864183175942e-02 -1.2133393223117975e-02 -1.2893278205849562e-03  3.4884872379220271e-02 -1.2195160072474733e-02 -1.0252021871201022e-03  2.1828024755448452e-02 -4.5623828643877604e-03 4.7621484006070153e-03  2.2994772191041953e-02 -4.7652858403997092e-03 5.0880569074376698e-03  2.4020704209557590e-02 -5.0683241265561110e-03 5.3643894021894916e-03  2.5023490182512719e-02 -5.4000154717210955e-03 5.5748996925752414e-03  2.6039604585720803e-02 -5.7768031164160388e-03 5.7233275557033655e-03  2.7102208275641842e-02 -6.2284633150945148e-03 5.8124724430632900e-03  2.8251998876761164e-02 -6.8026071223822263e-03 5.8402397399190693e-03  3.8402101800439896e-02 -1.8454570559162026e-02 -7.1159668493976889e-03  3.9190978626705647e-02 -1.8773688941813121e-02 -7.4074257852796638e-03  3.9903944196542147e-02 -1.9032692523637276e-02 -7.5433747035180279e-03  4.0563962416869499e-02 -1.9242225782685057e-02 -7.5520242491222776e-03  4.1188932675234005e-02 -1.9406926881699402e-02 -7.4468771301502814e-03  4.1782243946699105e-02 -1.9526845532125917e-02 -7.2377549588074968e-03  4.2395861571057604e-02 -1.9442358321411730e-02 -6.9811462988103676e-03  2.0756860278346907e-02 -2.2767003593345456e-03 4.9352589797574883e-03  2.0719911245397800e-02 -2.1126694292979099e-03 3.9459668930573854e-03  2.0173855062293539e-02 -1.1585426338282445e-03 5.3306008081507672e-03  2.0930358981584900e-02 -1.7121727162163075e-03 5.6447533743961388e-03  2.1539677099599638e-02 -2.6986405945393335e-03 4.2227011262019887e-03  2.1677734840305204e-02 -2.7276973251327201e-03 5.2394583670740211e-03  2.1636835314096728e-02 -2.3079430895932311e-03 5.8759011188647204e-03  2.2293269230464548e-02 -3.3225359572268951e-03 4.4265188149727646e-03  2.2497842412381213e-02 -3.2490602979529308e-03 5.4707489728417777e-03  2.2341072929148227e-02 -2.9355397359426502e-03 6.0323410393529854e-03  2.3044350205568200e-02 -3.9637947651196678e-03 4.5638139774377799e-03  2.3308783426097508e-02 -3.8013926916519816e-03 5.6292963434313118e-03  2.3046470457972579e-02 -3.6244422245137044e-03 6.1373610173593596e-03  2.3796714776330993e-02 -4.6548938490390147e-03 4.6597894433581932e-03  2.4119668373458161e-02 -4.4146727547646402e-03 5.7346452464333954e-03  2.3747894027160179e-02 -4.4072149083159004e-03 6.2145689860834954e-03  2.4546850881093540e-02 -5.4277465162819545e-03 4.7365880566222259e-03  2.4933534141519480e-02 -5.1250754306175483e-03 5.8051710145604332e-03  2.4423606389731629e-02 -5.3194434108225592e-03 6.2937717127868236e-03  2.5280304258222811e-02 -6.3237859366616538e-03 4.8111957820318810e-03  2.5740416399545305e-02 -5.9751536197819033e-03 5.8573399402996372e-03  2.3644054883412615e-02 -6.8096173424999759e-03 1.2396472652743532e-03  2.4876795566823182e-02 -7.0898967502387358e-03 1.5285295165879851e-03  2.5946176846399948e-02 -7.4373174252616641e-03 1.7755435079341666e-03  2.6985892139878537e-02 -7.7885156625123976e-03 1.9776408808790213e-03  2.8034210825789909e-02 -8.1633589522633280e-03 2.1481875332977876e-03  2.9132991367798101e-02 -8.5872975637794977e-03 2.2965090867875424e-03  3.0317075277565594e-02 -9.0959228580351041e-03 2.4114390463096614e-03  2.9890469752101908e-02 -1.3193029910442605e-02 -3.8815002915952774e-03  3.1179232620079843e-02 -1.3268060255752483e-02 -3.7623312811266032e-03  3.2314670281524460e-02 -1.3367637493368471e-02 -3.6271616132654344e-03  3.3375510760475402e-02 -1.3467173402312779e-02 -3.4652167364409262e-03  3.4420767299512718e-02 -1.3550362183169651e-02 -3.2659500057210058e-03  3.5504998591352213e-02 -1.3597559688812882e-02 -3.0178911433267263e-03  3.6632336222785826e-02 -1.3544329551896479e-02 -2.7460261044040765e-03  2.2787595143872401e-02 -5.9625850188394346e-03 3.9452958785287330e-03  2.4009592830853837e-02 -6.1094586060220736e-03 4.2959645164726955e-03  2.5091260518729123e-02 -6.3439615941942229e-03 4.5938798785723975e-03  2.6155380677954743e-02 -6.5979924288522016e-03 4.8275615398294365e-03  2.7239520850224803e-02 -6.8839127077077369e-03 5.0040310802474102e-03  2.8386810197098340e-02 -7.2246765128381038e-03 5.1275104547834193e-03  2.9648195137191934e-02 -7.6487321123718498e-03 5.1934264875369450e-03  2.3218258475609526e-02 -5.8726481128870672e-03 1.0009943834149570e-03  2.4339182307297334e-02 -6.2822299040896645e-03 1.1933695403151588e-03  2.5300420991471423e-02 -6.7448715564701932e-03 1.3448916263513141e-03  2.6233894269561540e-02 -7.2072306551239779e-03 1.4561931548890987e-03  2.7168741834677445e-02 -7.6985948362754816e-03 1.5410704815157340e-03  2.8131206977410398e-02 -8.2500439797726956e-03 1.6077070538501384e-03  2.9149791309006759e-02 -8.8950500644246321e-03 1.6616034522130556e-03  2.1386935760017111e-02 -3.1728207366806247e-03 3.1525723048934475e-03  2.2305099093025714e-02 -3.7144199387389833e-03 3.4016014895387895e-03  2.3136156669883664e-02 -4.2952263585647240e-03 3.5888764472681222e-03  2.3956124149497309e-02 -4.8942880093160081e-03 3.7177562357914458e-03  2.4777339234235991e-02 -5.5412168578558704e-03 3.8080396276559789e-03  2.5601847228815876e-02 -6.2700635469357530e-03 3.8759553705496256e-03  2.6416630909911264e-02 -7.1144044401650983e-03 3.9390545700826313e-03  4.3023476106108176e-02 -2.0336550508325661e-02 -7.9276450681697603e-03  2.0859266246996553e-02 -1.0709753214431148e-03 7.4963640194986303e-03  2.0944146521171124e-02 -1.6006738465637322e-03 6.2142236881296388e-03  2.1552229280297572e-02 -2.2637180717252625e-03 6.3798561031026772e-03  2.1475633978056786e-02 -1.6615548591104119e-03 7.6522439664144628e-03  2.2161690199639709e-02 -2.9884672397415546e-03 6.4936580821001325e-03  2.2092170462160096e-02 -2.3226495956504734e-03 7.7453576664938796e-03  2.2769324197434080e-02 -3.8054626700723682e-03 6.5843843894190009e-03  2.2706230461505276e-02 -3.0863661128434656e-03 7.8005663852470323e-03  2.3369709005427137e-02 -4.7387484052749413e-03 6.6914428552131335e-03  2.3307089753455679e-02 -3.9835922970310406e-03 7.8527856286152112e-03  2.4588821271728820e-02 -7.5810093284890620e-03 -2.7684722146658052e-04  2.5777975477295781e-02 -7.9182945994955428e-03 -1.1926916522690097e-04  2.6795744355377786e-02 -8.2999106578913306e-03 1.7327686543641448e-05  2.7780403396097157e-02 -8.6709029726563542e-03 1.2385002877470137e-04  2.8768678098332435e-02 -9.0544453082237620e-03 2.1252457858997483e-04  2.9796106851193091e-02 -9.4718646603196444e-03 2.9133004222589120e-04  3.0905936761596777e-02 -9.9472728280276933e-03 3.5895473611709678e-04  1.9731357959811902e-02 -3.2691007544517189e-04 8.9987745878445640e-03  2.0276173508335073e-02 -1.5942507420207668e-03 7.7626653651323794e-03  1.9820854764296760e-02 -5.6529981252840861e-04 7.6330595323482959e-03  2.0616818404233364e-02 -9.1130008586252356e-04 7.9397002447319717e-03  2.1201553411139624e-02 -1.8190057547318448e-03 8.0447134950090548e-03  2.0514165065423293e-02 -5.5237941615477490e-04 9.2664257588298809e-03  2.1321784846102032e-02 -1.3457681491685653e-03 8.1672471109321427e-03  2.2014076203378374e-02 -2.1525150424010001e-03 8.2626732910049527e-03  2.3200809477783170e-02 -4.5469004590328217e-03 9.8930301135327272e-03  2.3753633282031152e-02 -5.6617413271844138e-03 8.4682640956827548e-03  2.2455093214807639e-02 -4.0702976842066311e-03 9.3343669925513885e-03  2.3362059376755222e-02 -3.9523330324537850e-03 9.5288788845369846e-03  2.4711508231618797e-02 -5.4880933200185111e-03 8.7011508605877117e-03  1.9571974980982398e-02 -2.7956339140786446e-05 6.9201705883653519e-03  2.0127608223942016e-02 -1.1686847368410868e-03 6.3491652666043761e-03  2.0961347591675856e-02 -1.5878449729802015e-03 6.6727688174696726e-03  2.0241344941934789e-02 -5.2221922726890745e-04 7.2546145519415597e-03  2.1709374516778984e-02 -2.0845632606429822e-03 6.9153268777285030e-03  2.2449133387919561e-02 -2.6212653502421983e-03 7.0776296899411366e-03  2.3187766205404244e-02 -3.2256119436112254e-03 7.1773363263202307e-03  2.3924220704548634e-02 -3.9321057589546630e-03 7.2331293113635925e-03  2.4649426120235567e-02 -4.7902919537857157e-03 7.2600839753837847e-03  2.4427980530343455e-02 -6.1979431332134906e-03 8.9947191009896645e-03  2.5192880459390790e-02 -7.2810535146556020e-03 7.6037995706908302e-03  2.6221528205741394e-02 -7.0282390588418502e-03 7.8382846930250705e-03  2.5352930855821364e-02 -5.9020234138405922e-03 9.1244487414852936e-03  2.7219904379956496e-02 -6.8674615333543356e-03 7.9697061486020213e-03  2.6268594231064455e-02 -5.7144938273627766e-03 9.1616563418211276e-03  2.5626160366048818e-02 -5.4035215346324543e-03 8.8355689065923951e-03  2.8219243909045996e-02 -6.7500110280133089e-03 8.0124242155462499e-03  2.7187470954706694e-02 -5.5813911752363469e-03 9.1078952784728693e-03  2.6556538063093105e-02 -5.3525689443278306e-03 8.8706618606185939e-03  2.9250508728954523e-02 -6.6585542671050496e-03 7.9741203144535564e-03  2.7922622009094879e-02 -8.6716402320727894e-03 6.8464872645617406e-03  2.6947352127226498e-02 -7.4650288451044407e-03 8.1932870623285109e-03  2.8992093184832847e-02 -8.4734251048580265e-03 6.9652903959943249e-03  2.7931355349597099e-02 -7.2262550328167892e-03 8.2205778244368380e-03  3.0048068980995414e-02 -8.3223634801957470e-03 7.0176185565402312e-03  2.8908724925107668e-02 -7.0462416941599708e-03 8.1782697422146024e-03  3.1131055817272865e-02 -8.1965642118708194e-03 7.0102949129349891e-03  2.991