<?xml version="1.0"?>
<VTKFile type="UnstructuredGrid"  version="0.1"  >
<UnstructuredGrid>
<Piece  NumberOfPoints="1032" NumberOfCells="4339">
<Points>
<DataArray  type="Float64"  NumberOfComponents="3"  format="ascii">7.241015102650753 3.630563557155715 3.9686634451317  7.154103715495178 3.682094213486081 3.934586398363172  7.180707848430292 3.561229139229259 4.008533997785312  7.178116652159907 3.602291121635381 4.080467238012094  7.149425084700019 3.725481284749084 4.004561471359173  7.241266909988407 3.67288040033066 4.040321632302404  7.241520708790393 3.715144675823743 4.111715260704267  7.144800118737075 3.768798997972659 4.074274341374021  7.175557506954095 3.643328474381529 4.152140549667352  7.241751708589262 3.757330189008667 4.182890524097335  7.140192854181713 3.81201742064311 4.143777791538951  7.172995339249632 3.684304060963987 4.223623806219783  7.241924675538042 3.799449800693462 4.253921018029109  8.325713921899109 3.116648791980366 4.020909299379096  8.225244119475827 3.17808607726428 4.016075838819716  8.253072845502198 3.036974004990628 4.031584420921045  8.25619827902624 3.043706214550575 4.104081630754037  8.230688658143388 3.194420665390677 4.087773839821865  8.326852051142385 3.128067602166291 4.092779258750998  8.259423744179804 3.050398411894561 4.176502516507352  8.236209094508386 3.210691675213355 4.159419307635977  8.328107399953225 3.139441119382875 4.164571423480452  8.262690172569789 3.057032196618676 4.248855461561353  8.241751511092808 3.22690323405958 4.231009588573166  8.329415025601334 3.150750795043352 4.236299966065707  8.265966822301966 3.063596901598663 4.32115641213493  8.247290179982828 3.243046039308377 4.302562620594901  8.330731675263349 3.161981281174787 4.307980874065416  8.269225275311822 3.070087597493645 4.39342751660425  8.252812537246916 3.259124090204242 4.374111806303409  8.332013259636645 3.173121108148248 4.37963884658442  8.272412063845307 3.076518455827022 4.465711254244579  8.258312954479562 3.275169100182814 4.445704763617877  8.333177668796177 3.184198368309765 4.451313040269603  8.996022252196974 3.473168889477356 4.30314274820133  9.10017783189469 3.374402125127867 4.341777545327639  8.999920347497817 3.293096193145508 4.378151046694822  8.998004934222136 3.273229252043518 4.309051135439274  8.996363848837778 3.502704858437684 4.367928744123659  9.104761882133507 3.39702876895015 4.409242566705949  9.001823254483561 3.31282814614124 4.447162548023023  8.134762720406565 3.061471713269 4.036785809407766  8.143266184248331 3.06941096103151 4.109940610960142  8.151828367475634 3.077308214108008 4.183013653119232  8.16040323900898 3.085147554425864 4.256019226349704  8.168975136852429 3.092924650144127 4.328973068298931  8.177535045290547 3.100636110718977 4.401895271539147  8.186076616135542 3.108311360403864 4.474824637464458  8.502551233860208 3.377192284337621 3.93141123628188  8.387320935264309 3.315195497764793 3.968954116750488  8.497210317520977 3.282283706248716 3.982984949383659  8.495878371106405 3.308348134281785 4.050961899974285  8.38670705520893 3.34438533080741 4.035812947749338  8.50126032021991 3.414561028988412 3.993209218106649  8.494681886467005 3.334299302845963 4.118821847869685  8.386242166955137 3.373461256009351 4.1026269652521  8.500123297232092 3.451746236636643 4.054942843996887  8.493557518120298 3.360155101977457 4.186627684931157  8.385832145057007 3.402457446380497 4.169409382821133  8.499062718903756 3.488825732958579 4.11664486434421  8.492434718539267 3.385927365243758 4.254407215956594  8.385425132020933 3.431388378263818 4.2361827564402  8.498015572845246 3.525843510302845 4.178337675092961  8.491246570419623 3.411625002341058 4.322176153459916  8.384971331423962 3.460273001729864 4.302979009828108  8.496921733013007 3.562826581986043 4.240026927229327  8.489959111205177 3.437245891121245 4.389950740469684  8.384357921673436 3.489136250864811 4.369839425233327  8.495699253718088 3.599798046579254 4.301696427191415  8.387546725086748 3.402371317050431 3.915305791917504  8.389051860322356 3.441496969740765 3.976111243444464  8.390664577872418 3.480443214344273 4.036887046682157  8.392326090552372 3.519298394658314 4.097649424514841  8.393995522261976 3.558108792703699 4.15841410239374  8.395632419772014 3.596908136605704 4.219196068390936  8.397190473912865 3.635728738281788 4.280022058256688  8.994165394544964 3.323734678912614 3.977723939903347  8.872646067390585 3.279122480104538 3.99581341094685  8.990427223869519 3.192860859896217 4.031499680485336  8.871380267280562 3.305795361482294 4.062983184112293  8.994454267453927 3.353867272433668 4.04314149033971  8.992289512074201 3.213051461251274 4.101154501737946  8.870225405103758 3.332359361240268 4.129924558064336  8.994825562452053 3.383866879397264 4.108315277989906  8.994183426202293 3.233190466056591 4.170577032774716  8.869126753753557 3.358813768249671 4.196726305761384  8.9952269766355 3.413743035862753 4.173344134930726  8.996090314952152 3.253255396903956 4.239864556233325  8.868040690760058 3.385164617877096 4.263437398410536  8.995632624533471 3.443509463730231 4.238277776942152  8.86693436863041 3.411411523749977 4.330074198175232  8.865777319657784 3.437547790782923 4.396634822451011  7.770387370297348 2.916395362209368 4.114239276231005  7.749088863647986 3.021336541737583 4.117600757873099  7.649770391154993 2.977943531958256 4.141633204223855  7.666689511081853 2.982761010383214 4.221091628593651  7.766468710780987 3.028173302305289 4.195239914292971  7.787897679000459 2.915153514719344 4.191146614725576  7.683599666417891 2.987593393888026 4.300486160462469  7.783830454517751 3.03500842701905 4.272803364406879  7.805424134643955 2.913880773143771 4.267991458203156  7.700498345754356 2.992406859884283 4.379815296314055  7.80117885402685 3.041820100918962 4.350294388122862  7.822948994470151 2.912575185976773 4.344771567758952  7.818516490618102 3.048588645537564 4.427728799665644  7.840463121504788 2.911227243375305 4.421498137697552  7.717387226453662 2.9971800709852 4.459081167617963  7.835849492770503 3.055301397159667 4.505116281725866  7.857960942106604 2.90983410634598 4.498180812020925  7.734268758751052 3.001896099622873 4.538300118604146  7.853195533684761 3.061950278419348 4.582473709022223  7.875439136022266 2.908407323107809 4.574840353087378  7.75114628754545 3.00654559868325 4.617478083858899  7.65545345745675 2.85410992411247 4.13833169907562  7.674639839807348 2.847934322893389 4.216366329979082  7.693847011021663 2.841738778170165 4.294344724678292  7.713050484140778 2.835512537883707 4.372261973360028  7.732238957276956 2.829246659662395 4.450125690614372  7.751405378709181 2.82293808095367 4.527948419963705  7.770546970547794 2.816590884400966 4.605746202977956  8.187927092078722 2.93706002117474 4.041743160548916  8.194317334686652 2.937419885407257 4.114499962444809  8.200781536586799 2.937718054540313 4.187190612676019  8.207275166436332 2.93796423388198 4.259814107444702  8.213771210904941 2.938151984513675 4.332381756721816  8.22024556559766 2.938278392410214 4.404908529089716  8.226664667963059 2.938364186775867 4.477421575166833  7.696637833463237 3.58797579244999 3.928827920415707  7.600270052275697 3.656449709165809 3.912206073106202  7.5955181378793 3.519693364885948 3.991503952125342  7.609801583245891 3.558408344535963 4.063241010711498  7.617670899451728 3.702731448321519 3.978279596747921  7.715371431676097 3.631306808415239 3.99445417997874  7.623909632085968 3.597165589887594 4.134755998232959  7.634821283754537 3.749000256460604 4.044160828373501  7.733834233940748 3.674616759729985 4.059919532550715  7.637898828103211 3.635884466910948 4.206120218788363  7.651827086105054 3.795207969643366 4.109908700464954  7.75216503322589 3.717873412645493 4.12528528721116  7.65183215422291 3.674516720745163 4.277377795915704  7.66877906673024 3.841315314925549 4.175552540233934  7.770461978232357 3.761048234921056 4.190566079412835  7.665769795886464 3.713013583158848 4.348549042032994  7.685746252556046 3.887275788283878 4.241105613850403  7.788804900690673 3.804098600603735 4.255750718928998  7.679766789647603 3.751316369826086 4.419649971059738  7.702788468015281 3.933057343684257 4.306570085439663  7.807239112727936 3.846956217341532 4.320810019059087  7.514149997505439 3.599049121657181 3.961435156667186  7.526445183976521 3.641079707947856 4.032853261494252  7.538573387581202 3.683097454646024 4.103971341937702  7.55056866606816 3.725069809670131 4.174915707657866  7.562492664851017 3.766945686151708 4.245736956131633  7.574388292386085 3.808667981176617 4.316468252378982  7.586334721987371 3.850206341899959 4.387078341852495  8.071922905664964 2.96397103709662 4.058872133130482  8.08345836230944 2.966448126308975 4.132650466659044  8.095035541131093 2.968859986889043 4.206358419900908  8.106622988535687 2.971222893682889 4.28000482677041  8.118204110341415 2.973532087512312 4.353599656343932  8.129765782573921 2.975790210508114 4.427160105346021  8.141303801035139 2.97802179535752 4.5007060478119  7.696535185163316 3.11331829626707 4.115663523542921  7.712751714099261 3.126012728683114 4.193952352632741  7.728925819515378 3.138743610022998 4.272156048152744  7.74507189780387 3.151457615342832 4.350281645063442  7.761204946604013 3.164124400482957 4.428340675859164  7.777342031985698 3.176721935719268 4.506346819257853  7.793500840549059 3.189231718988298 4.58431037858384  8.709490445084992 3.078200690399379 4.047700531443144  8.647153631855536 3.138016843870508 4.030235643980507  8.615549757469154 3.018280721381559 4.044106033566086  8.610343447317224 3.023715659062122 4.115884915668847  8.642893703146397 3.153165022413136 4.10104492247724  8.704363903072982 3.089284561158983 4.119257671394757  8.605246497136861 3.02916862977757 4.18752904672303  8.638770709483699 3.168275807237025 4.171699739931531  8.699350544813619 3.100362860594827 4.190661836246463  8.60020549602001 3.034582838559559 4.259066913325547  8.634
[...]
<PointData  Vectors="f_16"> 
<DataArray  type="Float64"  Name="f_16"  NumberOfComponents="3" format="ascii">3.6469696577773880e-02 -7.8306284758347874e-03 1.5574941316134499e-02  3.7274630179219864e-02 -7.8507750442365892e-03 1.5444948692184138e-02  3.7446265526408368e-02 -8.1384451967412980e-03 1.6145110673507327e-02  3.7476410164130766e-02 -7.6976549999713479e-03 1.6386040262442194e-02  3.7239950839389267e-02 -7.3901476697491681e-03 1.5656744879247949e-02  3.6593738344826238e-02 -7.3560657703247790e-03 1.5791409469617445e-02  3.6703491449901315e-02 -6.9497543509908360e-03 1.5853709210801023e-02  3.7215913823333974e-02 -7.0063535318942499e-03 1.5717820301419518e-02  3.7505966865277102e-02 -7.3144838115170403e-03 1.6475584318592966e-02  3.6800535222503108e-02 -6.5999024733277003e-03 1.5803358963877433e-02  3.7192867724378499e-02 -6.6854567671810645e-03 1.5665177489973779e-02  3.7531859358364374e-02 -6.9796078049206107e-03 1.6452441397986593e-02  3.6890654535991670e-02 -6.2970608852774990e-03 1.5663660428838055e-02  3.0069841957716895e-02 -9.5428415382523731e-03 1.3051386714289607e-02  3.0102826773850833e-02 -9.6656529699662309e-03 1.2888294286459051e-02  3.0782372066103948e-02 -9.5513188778703836e-03 1.3394266467862993e-02  3.0923181437891401e-02 -9.2797539634363393e-03 1.3630395379851062e-02  3.0333729515608320e-02 -9.2665035016630520e-03 1.3080834557927058e-02  3.0167789746190249e-02 -9.2039864398851760e-03 1.3288904281122732e-02  3.1078723718142607e-02 -8.9557768345509010e-03 1.3884624519055377e-02  3.0539640914507282e-02 -8.8157218750246763e-03 1.3276926744464877e-02  3.0287179733262674e-02 -8.8063863492394423e-03 1.3532038589655468e-02  3.1255683837021833e-02 -8.6141412028173676e-03 1.4153576127479051e-02  3.0759303758636409e-02 -8.3579360150413430e-03 1.3483217635711607e-02  3.0435778050995857e-02 -8.3947503500096977e-03 1.3782720233943571e-02  3.1445936547571315e-02 -8.2689336010582596e-03 1.4443678124037370e-02  3.0989745434601510e-02 -7.8963941685267266e-03 1.3710853615655955e-02  3.0593045983315508e-02 -7.9800848076547262e-03 1.4049046820468753e-02  3.1643786442006487e-02 -7.9289650506980565e-03 1.4778235890367336e-02  3.1236024624462930e-02 -7.4315463278436644e-03 1.3983693403776146e-02  3.0733790764256957e-02 -7.5711387399843774e-03 1.4352366722460557e-02  3.1841800692096640e-02 -7.5986406308057152e-03 1.5211872258283229e-02  3.1519213690722823e-02 -6.9569414253072021e-03 1.4322952277999536e-02  3.0818785841190598e-02 -7.1707961962419490e-03 1.4753145545390728e-02  2.4037545010928439e-02 -4.8259371185703694e-03 1.2737915630481817e-02  2.3783669844259066e-02 -4.5895399915623939e-03 1.3710830897442941e-02  2.4890204619705002e-02 -5.1567244399546618e-03 1.4563594608067183e-02  2.4861691505045389e-02 -5.6899696294142694e-03 1.4570964439740082e-02  2.3975400250179864e-02 -4.2381139813172843e-03 1.2605220782468351e-02  2.3841480485066489e-02 -4.0288731204912573e-03 1.3588877375000389e-02  2.4886069526381303e-02 -4.6459120855948163e-03 1.4488048524786216e-02  3.1128874163212202e-02 -9.6580463211567193e-03 1.3525760375226350e-02  3.1377158508713539e-02 -9.3297127990001685e-03 1.3729284698951112e-02  3.1623551740304894e-02 -8.9808103613967846e-03 1.3959102291159244e-02  3.1869353406338022e-02 -8.6209483909817312e-03 1.4204139851436249e-02  3.2127790135159033e-02 -8.2611370084857243e-03 1.4470108567359865e-02  3.2420892296053098e-02 -7.9083818887322743e-03 1.4773549897760224e-02  3.2804952722967802e-02 -7.5595644626773933e-03 1.5170641131065709e-02  2.7588657072410504e-02 -1.0206366851702111e-02 1.1450555268942840e-02  2.8574482222451791e-02 -9.9478786709461375e-03 1.1948091743764485e-02  2.8321634643419351e-02 -9.7141989942734451e-03 1.2231082259215608e-02  2.8284539140120041e-02 -9.1164296818254855e-03 1.2378262656925192e-02  2.8682602280131426e-02 -9.3744779062667725e-03 1.2050447013056865e-02  2.7578669774848505e-02 -9.5259025455670474e-03 1.1428747858287522e-02  2.8314225569642065e-02 -8.5264498041927872e-03 1.2510202277916532e-02  2.8816934949837513e-02 -8.7834105573959317e-03 1.2139298109596049e-02  2.7617571088698150e-02 -8.8614938052382786e-03 1.1413199485359876e-02  2.8383542929630509e-02 -7.9387744127040766e-03 1.2643742409972550e-02  2.8981309399941372e-02 -8.1904402672134530e-03 1.2239502524610039e-02  2.7695973640220216e-02 -8.2059223250091368e-03 1.1407707037073297e-02  2.8454157283510199e-02 -7.3508467403855145e-03 1.2784754017486305e-02  2.9152148815512393e-02 -7.5885090152670222e-03 1.2358472597976990e-02  2.7782131693079685e-02 -7.5428629323881250e-03 1.1411055235778240e-02  2.8487176717654734e-02 -6.7581907229515327e-03 1.2937651031990908e-02  2.9298198498672524e-02 -6.9701412749989203e-03 1.2508748574501447e-02  2.7842621347396231e-02 -6.8577752375035342e-03 1.1422191996880280e-02  2.8456729233525373e-02 -6.1588918052918259e-03 1.3104462208076227e-02  2.9360906090777582e-02 -6.3429947222343004e-03 1.2678570232134484e-02  2.7840987924670532e-02 -6.1368725140982759e-03 1.1450749735787741e-02  2.7854596912109626e-02 -1.0474003066727119e-02 1.1257165786526781e-02  2.7995438431172769e-02 -9.8292478954847377e-03 1.1204272013632258e-02  2.8142103208056778e-02 -9.1816457670329255e-03 1.1156122492487215e-02  2.8311073248106170e-02 -8.5366412347548243e-03 1.1126600311316301e-02  2.8488703853950248e-02 -7.8755287968297963e-03 1.1114956007692049e-02  2.8655468975267020e-02 -7.1826350829908847e-03 1.1124279549602734e-02  2.8791780432136614e-02 -6.4375822869078220e-03 1.1161827462933240e-02  2.4124886319070175e-02 -8.2069972081351625e-03 1.2599248009256329e-02  2.5608113668295879e-02 -8.6382104119905254e-03 1.2950118129987554e-02  2.4765881063368501e-02 -8.1105549399852206e-03 1.3892262009679033e-02  2.5451970273214938e-02 -7.9073200669062382e-03 1.3148707264024962e-02  2.4032379393670977e-02 -7.4206465236873161e-03 1.2771903502778598e-02  2.4740313245023418e-02 -7.4322959213832009e-03 1.4209479425812060e-02  2.5393826679487957e-02 -7.2388704604188312e-03 1.3276488755440090e-02  2.4018348527950557e-02 -6.7104921888775397e-03 1.2849552320284023e-02  2.4766989440422375e-02 -6.8201120340437319e-03 1.4403620078165636e-02  2.5378638456931786e-02 -6.6132176483613987e-03 1.3350114331518751e-02  2.4033247260638275e-02 -6.0522922068933565e-03 1.2862635047523935e-02  2.4814968969625210e-02 -6.2427781459193791e-03 1.4518574482613839e-02  2.5367676191260253e-02 -6.0141193029726210e-03 1.3378805035321325e-02  2.4047201854735620e-02 -5.4273203434286174e-03 1.2824763608809134e-02  2.5331234794433409e-02 -5.4327416546910362e-03 1.3363253620116949e-02  2.5241639222548087e-02 -4.8629162444768287e-03 1.3302084738805930e-02  3.3951046625881318e-02 -9.8127298597233455e-03 1.5516708200825187e-02  3.3703112127032427e-02 -9.5471229460713340e-03 1.5500493215658476e-02  3.4703951024165486e-02 -9.6413213735992154e-03 1.6136119044020191e-02  3.5277763669067388e-02 -9.4245901178845893e-03 1.6305686441443097e-02  3.4238749070164602e-02 -9.2765409157660548e-03 1.5648446282969103e-02  3.4464730613927859e-02 -9.5836978706695924e-03 1.5677543109550718e-02  3.5773171506254572e-02 -9.1658050360699187e-03 1.6481358775502383e-02  3.4698356326031958e-02 -8.9803061084529692e-03 1.5818542834239512e-02  3.4923176309164666e-02 -9.3412207824004594e-03 1.5866293116535424e-02  3.6237544842624710e-02 -8.8913041223245351e-03 1.6651512823459044e-02  3.5133569071928328e-02 -8.6735121973310902e-03 1.5991958828745288e-02  3.5361602788261164e-02 -9.0901257574083141e-03 1.6070310209952161e-02  3.5583831980344080e-02 -8.3677769169920695e-03 1.6159034578098561e-02  3.5817311819303102e-02 -8.8393214420290321e-03 1.6277252638578467e-02  3.6710248510009057e-02 -8.6156454057199038e-03 1.6802481166093133e-02  3.6088388712769440e-02 -8.0724984751984440e-03 1.6309398537124032e-02  3.6333603174179649e-02 -8.5980013133488478e-03 1.6477134845917965e-02  3.7226367547473944e-02 -8.3472488205187760e-03 1.6923382262376125e-02  3.6690885165821044e-02 -7.7946406400207086e-03 1.6416144512962614e-02  3.6956123773021286e-02 -8.3673704677316076e-03 1.6647156706628585e-02  3.7812102566693991e-02 -8.1001027941169819e-03 1.7001457895535400e-02  3.5095007978326043e-02 -1.0033280003204467e-02 1.6234473309283393e-02  3.5671567723190363e-02 -9.8636057665060645e-03 1.6384960051450397e-02  3.6174255642448548e-02 -9.6646927563594082e-03 1.6564622794525766e-02  3.6649334764420824e-02 -9.4548905651179616e-03 1.6751572726908491e-02  3.7137998206311480e-02 -9.2421820254407015e-03 1.6933217859584789e-02  3.7679112438743605e-02 -9.0304204194673263e-03 1.7095306163283686e-02  3.8316087993534753e-02 -8.8297933673766680e-03 1.7222711575804656e-02  3.1569455451666173e-02 -9.6331136816439275e-03 1.3765032500356759e-02  3.1702795216044972e-02 -9.3870407168723888e-03 1.4003981747250425e-02  3.1891528003411461e-02 -9.1406195387035514e-03 1.4265461585467145e-02  3.2085044293165853e-02 -8.8763111506161493e-03 1.4551742068753098e-02  3.2291506389389393e-02 -8.6098609364950660e-03 1.4867154110632948e-02  3.2520396672617580e-02 -8.3532118965044325e-03 1.5228908482367959e-02  3.2791212536268870e-02 -8.1134975507107816e-03 1.5685378800444842e-02  3.1342964285037550e-02 -8.5462902387727011e-03 1.3571753578811368e-02  3.2131115443995356e-02 -8.1116410073524443e-03 1.3748465179636895e-02  3.2856340667126969e-02 -8.2887128358219431e-03 1.4621785654899135e-02  3.3485720889420208e-02 -7.8156549894286952e-03 1.4674335082373735e-02  3.2814595319139016e-02 -7.6242141290545594e-03 1.3674015615642215e-02  3.2063358512699654e-02 -8.0723681546492655e-03 1.3460183510066380e-02  3.3989428017521021e-02 -7.3592945321294826e-03 1.4653905948130083e-02  3.3358549713019200e-02 -7.1766269535763058e-03 1.3536880586677819e-02  3.2631377918150836e-02 -7.6070712842246264e-03 1.3322489356660071e-02  3.4435190254015750e-02 -6.9222968756748474e-03 1.4578089362951827e-02  3.3838265477565299e-02 -6.7566063602986278e-03 1.3351070786861836e-02  3.3135328171702623e-02 -7.1521615450111133e-03 1.3159666218057302e-02  3.4869785173979324e-02 -6.5105060692073318e-03 1.4450067551770737e-02  3.4306846650966068e-02 -6.3649546873422481e-03 1.3116527304301706e-02  3.3636931306555679e-02 -6.7150348049360613e-03 1.2963792290488758e-02  3.5327080142968238e-02 -6.1327339665154454e-03 1.4264402233562673e-02  3.4799372570967296e-02 -6.0073440980034894e-03 1.2825715351337986e-02  3.4180971726188267e-02 -6.3069677911130736e-03 1.2719454027075680e-02  3.5815722606864622e-02 -5.8109206550124616e-03 1.4018038927416661e-02  3.5315330772087712e-02 -5.7018626482157669e-03 1.2483440139004685e-02  3.4768901060194604e-02 -5.9563008815870771e-03 1.2438717627612459e-02  3.3395186139317336e-02 -7.9828632809417349e-03 1.4608756461481116e-02  3.3970815305288990e-02 -7.4859796993911208e-03 1.4689259944461953e-02  3.4436790294238698e-02 -7.0348003656426602e-03 1.4663194374239441e-02  3.4843757633480597e-02 -6.6184921285670217e-03 1.4561446892803927e-02  3.5232777785546225e-02 -6.2367475639940589e-03 1.4395326894331607e-02  3.5630037488991434e-02 -5.8926289970377844e-03 1.4166249922277096e-02  3.6041342583435311e-02 -5.5986782784327874e-03 1.3873192797636522e-02  3.1945076117020368e-02 -9.6986400161717286e-03 1.3994627939000973e-02  3.2201196230680559e-02 -9.4032039083573413e-03 1.4210127771973889e-02  3.2471237691425743e-02 -9.1200676028076900e-03 1.4443725955396771e-02  3.2734129476366516e-02 -8.8281419433356122e-03 1.4705118460984637e-02  3.3014595714436684e-02 -8.5374398556254498e-03 1.4998013127531866e-02  3.3347840536412293e-02 -8.2565072205361221e-03 1.5336066689919157e-02  3.3798753969265342e-02 -7.9917095357755780e-03 1.5703612709179301e-02  3.3741782494094506e-02 -9.2800034815733786e-03 1.5611654325423304e-02  3.4316789708642437e-02 -8.9983834213009876e-03 1.5766242992164232e-02  3.4797489501281850e-02 -8.6709227888081622e-03 1.5916970038794810e-02  3.5243483025755661e-02 -8.3311762915996533e-03 1.6056507324184968e-02  3.5697332240338227e-02 -7.9940587599334235e-03 1.6176977789870473e-02  3.6194957709291521e-02 -7.6705731780186276e-03 1.6267252378354736e-02  3.6765049464396606e-02 -7.3693588633821621e-03 1.6307100866695540e-02  2.8163159573038506e-02 -9.0164447056512477e-03 1.4156749093892617e-02  2.8327846308933768e-02 -9.1795561793649970e-03 1.3560003788694279e-02  2.9198609511270627e-02 -9.2530200682437082e-03 1.4151196191242780e-02  2.8969802002908704e-02 -8.8787045432830603e-03 1.4458322391818750e-02  2.8128896617337248e-02 -8.6699270170006067e-03 1.3832698546529730e-02  2.7943183075149487e-02 -8.5503075744432101e-03 1.4476813690336899e-02  2.8895254658992484e-02 -8.5029555407255975e-03 1.4752690813900828e-02  2.8060286772480292e-02 -8.1721898141497024e-03 1.4074176736845467e-02  2.7869628944807674e-02 -8.0951603044277978e-03 1.4744895243311932e-02  2.8887020733687110e-02 -8.1295647901514032e-03 1.5030538658537821e-02  2.8052228914474047e-02 -7.6874741593317419e-03 1.4291149283081927e-02  2.7856730682608216e-02 -7.6528185685579521e-03 1.4976274164768646e-02  2.8882294173431532e-02 -7.7631399059926399e-03 1.5293432003538643e-02  2.8048124164763169e-02 -7.2137272458871627e-03 1.4488711480904371e-02  2.7844671613108034e-02 -7.2224696269997321e-03 1.5177771358576959e-02  2.8822505690817509e-02 -7.4077406981339260e-03 1.5542416962045166e-02  2.7998304782531760e-02 -6.7487645208700615e-03 1.4668232619791255e-02  2.7783058238089700e-02 -6.8043149748205738e-03 1.5351368512507804e-02  2.8648825247620704e-02 -7.0731441829236900e-03 1.5779502654165792e-02  2.7865369386202446e-02 -6.2867931125943953e-03 1.4830722738165771e-02  2.7615674068528009e-02 -6.4025684715227635e-03 1.5478826061199109e-02  2.9167530207852413e-02 -9.3067023276239783e-03 1.3519150316754438e-02  2.8665562911756256e-02 -9.4485971158305027e-03 1.2942645018971315e-02  2.9585426938656793e-02 -9.4370872645711344e-03 1.3123271602275225e-02  2.9556095528235040e-02 -9.0583240803587522e-03 1.3369122226910016e-02  2.8527052975958044e-02 -8.9256202221248502e-03 1.3158708956460130e-02  2.9019204136245192e-02 -8.8797601081225686e-03 1.3796511838136268e-02  2.9604168663327456e-02 -8.6371891927574645e-03 1.3610038920596725e-02  2.8500555639874661e-02 -8.4041384008718290e-03 1.3362062636299372e-02  2.8981149522804710e-02 -8.4468771177106418e-03 1.4061877625985458e-02  2.9697272968564590e-02 -8.2032917828532715e-03 1.3854171483635738e-02  2.8527004440792682e-02 -7.8867143622367818e-03 1.3555871873559113e-02  2.8997648367421140e-02 -8.0127489452551329e-03 1.4320123970450079e-02  2.9798095367967774e-02 -7.7677848245873557e-03 1.4110004590262831e-02  2.8559533013744039e-02 -7.3738458984811683e-03 1.3745966444983887e-02  2.9014290232640298e-02 -7.5836022138824300e-03 1.4575891494131401e-02  2.9862730113377367e-02 -7.3355779785445165e-03 1.4393124296578016e-02  2.8550189893814647e-02 -6.8648048054689029e-03 1.3936806083064713e-02  2.8977516463911408e-02 -7.1642276938946288e-03 1.4833805352891607e-02  2.9800031511330542e-02 -6.9129911440735528e-03 1.4719971403803532e-02  2.8446583547331740e-02 -6.3611269662320015e-03 1.4132301377235196e-02  2.8842842882931256e-02 -6.7604074767959963e-03 1.5082132094552779e-02  3.2700111072049690e-02 -7.8193127851474628e-03 1.3726077030279534e-02  3.3342927948768676e-02 -7.3157026598304050e-03 1.3677141889017839e-02  3.3853015912207025e-02 -6.8773904944492313e-03 1.3549265805403906e-02  3.4293996376136629e-02 -6.4854455993304848e-03 1.3356374762509129e-02  3.4715191907009793e-02 -6.1310213595415436e-03 1.3103969550685391e-02  3.5148080994189257e-02 -5.8122261809917504e-03 1.2788473353820926e-02  3.5590797099579095e-02 -5.5426921093461833e-03 1.2416503353019515e-02  3.4812699829974439e-02 -9.3204418794951647e-03 1.6280826187829018e-02  3.5391511780095086e-02 -9.0654750591741395e-03 1.6463344726534639e-02  3.5877713691829016e-02 -8.7696427258031739e-03 1.6621440389378052e-02  3.6323095387289887e-02 -8.4587406697858320e-03 1.6752451357476883e-02  3.6767648221975834e-02 -8.1487896846534156e-03 1.6852202522815437e-02  3.7241601423312613e-02 -7.8503281324728974e-03 1.6911471250543850e-02  3.7772911767345763e-02 -7.5737137073202980e-03 1.6911547912286051e-02  2.8973918886183461e-02 -9.6377086249257830e-03 1.2541635505470128e-02  2.8979944563110836e-02 -9.1562192633877024e-03 1.2742504755222404e-02  2.9054630679348721e-02 -8.6342908674721594e-03 1.2932873229100396e-02  2.9169364233860792e-02 -8.1120936559929378e-03 1.3125018842633266e-02  2.9290613714953350e-02 -7.5895702950409035e-03 1.3328214193125167e-02  2.9379406132042839e-02 -7.0652958282966232e-03 1.3556859437371963e-02  2.9365758999641074e-02 -6.5428176560048132e-03 1.3818473464894145e-02  3.4044012231080084e-02 -7.6942177687910592e-03 1.4550505337724489e-02  3.4528153933425301e-02 -7.1798993213995970e-03 1.4639359579421144e-02  3.4901901145322815e-02 -6.7411440909191352e-03 1.4599322167660595e-02  3.5228204132841077e-02 -6.3529284611053135e-03 1.4469393906453659e-02  3.5539763609589513e-02 -6.0055845380218905e-03 1.4266438102717976e-02  3.5858527184919407e-02 -5.6942087169361590e-03 1.3994004330391763e-02  3.6175480847088250e-02 -5.4327919907894541e-03 1.3661326428174123e-02  3.1939016845410423e-02 -9.4344365433339048e-03 1.4325095948846145e-02  3.1129260484383563e-02 -9.5338528517122136e-03 1.3715264834184795e-02  3.1572822962839441e-02 -9.2598595883620627e-03 1.4068352577858810e-02  3.2120066439853399e-02 -8.7727012796466712e-03 1.4102444220173135e-02  3.1608226156962266e-02 -9.0517521659468116e-03 1.3785131851085443e-02  3.2443057670552541e-02 -9.0198867306557247e-03 1.4445158848545541e-02  3.2573905328136504e-02 -8.2875557838577255e-03 1.4144685469817826e-02  3.1986590723636889e-02 -8.5675327462944248e-03 1.3851365742332245e-02  3.2880041074113242e-02 -8.5871761089617738e-03 1.4573523611074746e-02  3.3003277560122946e-02 -7.8113383761521989e-03 1.4190677112016631e-02  3.2348735016555032e-02 -8.0929437074928039e-03 1.3935110913164917e-02  3.3297260220024549e-02 -8.1626381964676354e-03 1.4710334579011174e-02  3.3451209081536308e-02 -7.3437642854595839e-03 1.4230010642064641e-02  3.2729800958045896e-02 -7.6227328369969961e-03 1.4030995302714851e-02  3.3731451263018963e-02 -7.7464222926833491e-03 1.4847958456737160e-02  3.3962619101443214e-02 -6.8893523893825224e-03 1.4249357365721107e-02  3.3179761239497285e-02 -7.1544358613410469e-03 1.4134619710325303e-02  3.4222115536531372e-02 -7.3423486379846099e-03 1.4974226035539532e-02  3.4563993198004142e-02 -6.4580253466952073e-03 1.4225124835154264e-02  3.3779266708801006e-02 -6.6949032359173008e-03 1.4209961194095212e-02  3.4800276975570948e-02 -6.9558811388889859e-03 1.5094605410955369e-02  3.0534914741637637e-02 -9.0492989444107413e-03 1.3201000431205897e-02  3.0323336234459326e-02 -8.8988182636419305e-03 1.2881476265629192e-02  3.1078209073647233e-02 -8.4494763694639638e-03 1.2639866400785299e-02  3.1222567722705593e-02 -8.5784013409059348e-03 1.3030460590061514e-02  3.1670587161977008e-02 -7.9939949436553994e-03 1.2407290166539690e-02  3.1770030443857976e-02 -8.0855773049294255e-03 1.2880024530026622e-02  3.2195051869358421e-02 -7.5391871829596389e-03 1.2171748525086531e-02  3.2260057383817146e-02 -7.5935961585045231e-03 1.2733361453097608e-02  3.2724027349994078e-02 -7.0934026381819816e-03 1.1918271153458232e-02  3.2758323877350198e-02 -7.1084078467696541e-03 1.2574210548548986e-02  3.3312433100421181e-02 -6.6722225367014743e-03 1.1628321987374497e-02  3.3324266848054104e-02 -6.6387370984122129e-03 1.2384348102542280e-02  3.3967342181927047e-02 -6.3216360679533620e-03 1.1319925577225238e-02  3.3985443741778920e-02 -6.2335432754168510e-03 1.2164215929760500e-02  3.1449317676035406e-02 -9.6899950770494292e-03 1.4587379583753560e-02  3.0965746237764304e-02 -9.5159571795252751e-03 1.4395668583115339e-02  3.1393204598970104e-02 -9.5602766652540302e-03 1.4130749868029620e-02  3.1329925089204430e-02 -9.4166932200581924e-03 1.4382577447192783e-02  3.0828674697609311e-02 -9.3817177494276652e-03 1.4652836793596646e-02  3.1316000761595686e-02 -9.5972404577958480e-03 1.4836222046084910e-02  3.1365045061