<?xml version="1.0"?>
<VTKFile type="UnstructuredGrid"  version="0.1"  >
<UnstructuredGrid>
<Piece  NumberOfPoints="992" NumberOfCells="4191">
<Points>
<DataArray  type="Float64"  NumberOfComponents="3"  format="ascii">0.8536311479773994 4.018705003563555 1.362761556823412  0.7447835235525281 4.041751128318691 1.424466258428668  0.8510204681792201 4.062297008867845 1.532048229237119  0.8562419788907609 4.146682737038542 1.515671297548134  0.7499653137095879 4.128615549985912 1.399665634860535  0.8588214799333753 4.101905169911079 1.333115063767979  0.7548060758660065 4.214746802632009 1.375031690840075  0.8635671476518574 4.184474188955419 1.30368235277463  0.8610885757000931 4.230465959690938 1.499364944745691  0.8680390935010257 4.26656917571252 1.274472612276816  0.7594158457527801 4.300178562054109 1.350687648822031  0.8656985147753623 4.313690398907676 1.483241303534747  0.8724219089137748 4.348094104238588 1.245478268270765  0.7639735107921501 4.385011614759241 1.326581465306937  0.8702807363239454 4.396395895555409 1.467275001184089  0.8770061785959593 4.429010163268345 1.216602631369778  0.7687060483312923 4.469234945602353 1.302656126885144  0.8750281307305365 4.478527279091963 1.451415526762533  0.8822940019541081 4.509295153105906 1.187874888920234  0.7739945919125779 4.552700743117487 1.278890093073135  0.8802277295242851 4.559919997844944 1.43559929270107  1.435871180877924 4.073286040308703 2.214305145239449  1.566157205714947 4.08001075383731 2.183235775784677  1.4486501191521 4.081209055625369 2.068333767487875  1.44804506612612 4.150437446367949 2.069709365768089  1.564285774053274 4.147670572604251 2.187545145399381  1.434904374227731 4.140741509337192 2.219766576950663  1.447429734428627 4.219526556036779 2.071024420469049  1.562470671859626 4.215214347115404 2.191799500900252  1.433950127322865 4.208088151318142 2.225152636137073  1.446823431184899 4.288443557735558 2.072296977503246  1.560691198436813 4.28261540142777 2.196013017086036  1.433013392583904 4.275299182762774 2.230489348505147  1.446243363142103 4.357199407444551 2.073551088540833  1.558930103010755 4.34988143787316 2.200208031626306  1.432104057195599 4.342373600862693 2.235804647185559  1.445716002179307 4.425815716726098 2.07480656561398  1.557173090726218 4.417030851944532 2.204402899423582  1.431237518425383 4.409319189624541 2.24112785554446  1.445295843345506 4.494324645663866 2.076071226651876  1.555419768257079 4.484091657980334 2.20859716332214  1.430436296812557 4.476147326020878 2.246486311877536  1.334120643390307 4.080472678837738 2.095203715836461  1.327961906248413 4.08234437987106 1.955660573901678  1.328660507894378 4.153788822220737 1.954794637238206  1.334406460564744 4.150103676978606 2.097723582469315  1.329274358285649 4.225059026197233 1.953862292596364  1.334633324496967 4.21957889459334 2.100162169826618  1.329856606574169 4.296127779867096 1.95289507416488  1.334847825057452 4.288885125725497 2.102551513912516  1.330458706341653 4.366995935425138 1.951921536400075  1.335094567992431 4.358018907936724 2.104919603131096  1.331163265637371 4.437675297562112 1.950953310271338  1.335430715547796 4.426986187549469 2.107295164582371  1.33207829762539 4.508176001488988 1.949989903193204  1.335931704804483 4.495792128634202 2.109712333869233  0.9877141489670405 4.045184782034979 1.497473625444917  0.979860965031331 4.070271741062558 1.636296417885678  1.098549041421393 4.05852351613164 1.617406593427854  1.101985981938754 4.136870510375931 1.605173241229169  0.9845602852009516 4.150722968917856 1.624518407494648  0.9928117615416491 4.126373245193623 1.478779000182276  1.105135017656353 4.214855216766738 1.592978184473453  0.9889348381968586 4.230759880268777 1.612761705627425  0.9974848744157243 4.207084960578522 1.460174077843787  1.108110142009409 4.292477308595906 1.580845737846123  0.9931182197012779 4.310367553407815 1.601082536275559  1.001923093281137 4.287318789429564 1.441712856366923  1.111049334519044 4.369737178467323 1.568763861025637  0.9972897386556419 4.389553732836535 1.589458596795528  1.006320497407313 4.367106666647389 1.423344112547007  1.114149595747018 4.446621053773073 1.556657739724873  1.001632202680143 4.468295058813097 1.577863731711062  1.010886262030442 4.446414882541921 1.404980471851495  1.1176528668721 4.523067167316103 1.544525240098036  1.006394632225396 4.546530489347898 1.566264711992253  1.01598009487956 4.525211670830201 1.386630292815665  1.212658517222337 4.081079779121684 1.845327752612063  1.212457736639317 4.082497766901585 1.992646855266787  1.214111661097717 4.154724184266137 1.992645885984184  1.214333536443324 4.15525077647102 1.841804684817894  1.215648774578793 4.226721531114793 1.992559456346174  1.215869957649623 4.229184558142552 1.838228048231241  1.217131437119152 4.298486611239741 1.992423238511618  1.217330715456042 4.302866374868396 1.834634834369039  1.218637717728207 4.370023045585503 1.992267374728951  1.218799968293487 4.37628842059495 1.831051697186407  1.220265339486076 4.441333282461499 1.99211745500661  1.220414736609785 4.449444833699118 1.827463228877426  1.222134316811354 4.512401450385869 1.992016578474667  1.222309672331711 4.522298482719108 1.823870405697739  1.095459423971532 4.077576706909086 1.741606692108069  1.097683343553928 4.085563903932416 1.880049153480983  1.100865832874226 4.161011397093247 1.877324167476184  1.098968741239701 4.154729150202603 1.733571549948081  1.103853710482932 4.236177531903644 1.874527877598405  1.102240537981059 4.23154277160551 1.725513242416928  1.106743628231227 4.311032887427295 1.87168893027033  1.105386465912023 4.308012900195662 1.717478379136741  1.109646513987253 4.38558824191121 1.868844747831768  1.108532923957221 4.384149605833631 1.709461152145227  1.112694937360587 4.459837391231861 1.866009305467441  1.111842091507944 4.459939328995273 1.70143458701567  1.116032806631636 4.533750858677093 1.863214278525444  1.115497322877625 4.535361748316125 1.693413654812163  0.9779989349551921 4.086104886769656 1.767400202084601  0.982111693034554 4.165285889028315 1.760476520615145  0.9859449949187039 4.244026182936483 1.753526454484692  0.9896198411035381 4.322400368658559 1.746602088888765  0.9932975301278879 4.40038122268272 1.739687073152242  0.9971289645492523 4.477936967334224 1.732803163012134  1.001288481717284 4.554947516120848 1.725984724756054  0.9658712361918885 4.010597883710795 1.368253138911261  0.971454468247442 4.091014616224884 1.338653688751243  0.9765292517746721 4.170867942284272 1.30926814655626  0.9813086817894634 4.250217897874334 1.280079200884731  0.9859884856057076 4.329079974528014 1.251030338845292  0.9908597782548126 4.407386822947345 1.222039327629558  0.9964019798392846 4.485060543558755 1.193191522726414  1.921604936904789 4.085491568670823 2.056120838725938  2.032295926750571 4.067900635350387 1.947909479579067  1.922422460706282 4.075074505841847 1.914253133410119  1.92781302095645 4.146648409165283 1.907347185214533  2.040251275288681 4.13937753503686 1.943201861235861  1.92665733862752 4.155984559466639 2.054648641430149  1.933076779091417 4.218025577960161 1.900501887932024  2.048018654111821 4.210697123636056 1.938557734286207  1.931590183637204 4.226279084937329 2.053209232753566  1.083097989823892 4.005681572037301 1.376651803380642  1.087745468393574 4.084476520612858 1.349731268413457  1.09195605244071 4.162833351733498 1.322979956486838  1.095908075833232 4.24079089560405 1.296383999549232  1.099758118303489 4.318320024965326 1.26989947553105  1.103792485082363 4.395360105877239 1.2434302015338  1.108432138245753 4.471886454791024 1.217023980921108  0.9746651463126744 3.962776971236702 1.254757152761613  1.098415270933372 3.955002875796195 1.249601010048918  1.102263264431764 4.031567078938543 1.213255401079037  0.978276400595441 4.041613274230814 1.217829467466684  1.105677880869492 4.107767815503414 1.177131443722436  0.9814659063488744 4.119955812759112 1.181167227479944  1.108809154277883 4.183594109550514 1.141206789355012  0.9843382626011896 4.197827554501398 1.144734766094599  1.111807373517273 4.258998377743292 1.105416168366031  0.9870329945240228 4.275196526335004 1.108458874554888  1.115005042338134 4.333939238685764 1.069713597538169  0.9899132688015603 4.352026490470746 1.072314957628546  1.118831475143995 4.408415818517195 1.034099721037092  0.9935016625760801 4.428287351813493 1.036354733088939  1.20342762163714 3.997273221866979 1.376257540130354  1.206958112809565 4.074402712069538 1.350356498524842  1.210132533295227 4.151190498409458 1.324590200425681  1.213076234520428 4.227631740105535 1.2989558359693  1.21592807424237 4.303714939122562 1.273409638173126  1.218943388023785 4.379409750325816 1.247851340189726  1.222480935374674 4.45472721159031 1.222296369749591  2.068190601969667 4.343989082769991 2.212586660045516  1.946614960638302 4.357838318907575 2.191618355435434  2.074225171429526 4.349304188387578 2.076672398564793  2.065817957318238 4.279665250206305 2.076919045984538  1.952023288847659 4.426358304429709 2.193334155136919  2.076090329464566 4.412297393117973 2.214535525227649  2.082665702582464 4.418815238364227 2.076384848983091  1.957487529224949 4.494744997652946 2.194998202044585  2.084077218779313 4.48045646395812 2.216430385775725  2.091212516109607 4.488187205378368 2.076021639794385  1.237514089748529 4.394168553049127 1.039267568676024  1.33495063354057 4.437272598360614 1.199105972808293  1.33264161917602 4.021767624515743 1.471164253526444  1.317794872491637 4.046189406219709 1.585223549685893  1.431237389777221 4.047928694309568 1.596383779076564  1.319906856272889 4.121706818666635 1.570831757273754  1.335353337788644 4.097428015229969 1.45052627841541  1.432885123249257 4.122441954067142 1.582234229066021  1.321831427891108 4.196944520073131 1.556468419322335  1.337833889812396 4.172859464312539 1.429949269252551  1.434379630516574 4.196733044450195 1.5681089762219  1.323628835851114 4.271895645313766 1.54214221215
[...]
<PointData  Vectors="f_16"> 
<DataArray  type="Float64"  Name="f_16"  NumberOfComponents="3" format="ascii">9.7813790854714394e-02 -3.0032214411286016e-04 -3.4619065069162950e-04  9.8316724582398665e-02 -3.5499672024888435e-04 -1.8768538099471230e-04  9.7849591806228681e-02 -3.7556759365430241e-04 -1.0211153509353734e-04  9.7894578541131080e-02 -1.2353830259512790e-04 -1.0327200184543338e-04  9.8335920785985534e-02 -8.3617001649856327e-05 -2.1756977575537156e-04  9.7848361562872674e-02 -2.6994375053115937e-05 -3.8773147563673686e-04  9.8377790826346082e-02 1.6308760989798218e-04 -2.5482709390477605e-04  9.7902732886641697e-02 2.1492561773121146e-04 -4.2917954596774364e-04  9.7955630822579257e-02 1.0612814323658553e-04 -1.1351434379547416e-04  9.7969989836813917e-02 4.3516760270776589e-04 -4.6359335595092313e-04  9.8424951728624768e-02 3.8819411549105695e-04 -2.8752577920639186e-04  9.8026851432364143e-02 3.1503917366710384e-04 -1.2329728599897295e-04  9.8049985619588900e-02 6.3463881673995798e-04 -4.8646099862730897e-04  9.8481456443359261e-02 5.9103618676826348e-04 -3.0872707072998314e-04  9.8112676684525321e-02 5.0314551298233660e-04 -1.2665451897023449e-04  9.8145864882237741e-02 8.1361463005343406e-04 -4.9499766777105238e-04  9.8551475414545453e-02 7.6830808204145814e-04 -3.1616784594417757e-04  9.8216291479896689e-02 6.7112273039272451e-04 -1.1897501062322527e-04  9.8253628553737454e-02 9.7033577327657701e-04 -4.8439162228358727e-04  9.8621535881173325e-02 9.1671677685555898e-04 -3.0668712319186224e-04  9.8317146636189262e-02 8.1951619023245539e-04 -9.4524850922460374e-05  9.5202761243199346e-02 -1.0519903556914097e-03 1.5433742263240180e-03  9.4413832181131793e-02 -1.2361706282566322e-03 1.5990002495255946e-03  9.5055708316704596e-02 -1.0260660753270978e-03 1.1789518245155597e-03  9.5166422111134283e-02 -8.2929385077924983e-04 1.1963291022816526e-03  9.4547637280678221e-02 -1.0187109432385885e-03 1.6203482081606827e-03  9.5296520098633153e-02 -8.6404210994642553e-04 1.5627292807556404e-03  9.5315151676945917e-02 -6.4370240937802357e-04 1.2132020849566175e-03  9.4731580230564938e-02 -8.2529476407933254e-04 1.6423489744479267e-03  9.5431765396493048e-02 -6.8459494943028023e-04 1.5811383684763551e-03  9.5484724960224296e-02 -4.7291110060386558e-04 1.2291239842643592e-03  9.4939045756845919e-02 -6.5562310007902269e-04 1.6638549083370132e-03  9.5588865308982932e-02 -5.1880239874586614e-04 1.5983937742625499e-03  9.5658391678558927e-02 -3.1781560171532751e-04 1.2446945123413327e-03  9.5147401689749125e-02 -5.0900970897145386e-04 1.6837942722788550e-03  9.5750380860591316e-02 -3.6696726518316617e-04 1.6142220262620327e-03  9.5819526558111476e-02 -1.7487158914467472e-04 1.2605639099416551e-03  9.5334426916037981e-02 -3.8265082734606037e-04 1.7012500791698222e-03  9.5898848675117693e-02 -2.2507046383514115e-04 1.6290335169303839e-03  9.5951601623453106e-02 -3.6096968849917903e-05 1.2777809534060868e-03  9.5474597752232798e-02 -2.7369778136068551e-04 1.7169665502730070e-03  9.6014756449259400e-02 -8.2166670059697654e-05 1.6446622394143283e-03  9.5695918312192971e-02 -8.9905176716551828e-04 1.1437238337493421e-03  9.5660731813634270e-02 -8.4814039006569735e-04 8.0660294702485471e-04  9.5760994488116660e-02 -6.5637451195910189e-04 8.2677049610358172e-04  9.5787123070921742e-02 -7.1796884263105405e-04 1.1617636261549941e-03  9.5889908310352767e-02 -4.7280126353866503e-04 8.4239942117438017e-04  9.5907730492611670e-02 -5.4172120186541718e-04 1.1765702594377617e-03  9.6036017718570912e-02 -2.9948617004921105e-04 8.5627111035945587e-04  9.6046120388622494e-02 -3.7406150261605199e-04 1.1899204792090755e-03  9.6188681303382137e-02 -1.3657772232784774e-04 8.7056279236546823e-04  9.6191176455340560e-02 -2.1557788092315010e-04 1.2027185469552753e-03  9.6337675663888706e-02 1.9921683042441415e-05 8.8733044681722501e-04  9.6332284762374154e-02 -6.2454344870423081e-05 1.2161672291929376e-03  9.6473171080048256e-02 1.7505977472406656e-04 9.0874778596264296e-04  9.6459546712417119e-02 9.3118480991490410e-05 1.2319450301956714e-03  9.7183467354032382e-02 -3.9123740419317720e-04 -2.0690642219507843e-04  9.7261176241360561e-02 -4.5313344707330490e-04 3.4370311414608176e-05  9.6671306940211407e-02 -5.1608569435171773e-04 -7.6794846372108206e-06  9.6763133252357567e-02 -2.9216985445279427e-04 7.2166556094651711e-06  9.7333423239580746e-02 -2.2583677888798700e-04 4.9071819030722493e-05  9.7257296108702290e-02 -1.4284408552867680e-04 -2.0842061835833441e-04  9.6869855598336052e-02 -8.0292344466206423e-05 1.2663967811832048e-05  9.7416201781106562e-02 -1.3856510441813830e-05 5.3630007547797619e-05  9.7342164667857917e-02 8.2498758268684274e-05 -2.1838686944538157e-04  9.6990379275160382e-02 1.1524218475870107e-04 1.6924307640422949e-05  9.7512025871537636e-02 1.8243639066294840e-04 5.5937098418298627e-05  9.7440069623047007e-02 2.8754143441787070e-04 -2.2679572965124173e-04  9.7122525433995757e-02 2.9589416314807924e-04 2.5276516954073708e-05  9.7621596006113615e-02 3.6385578450071846e-04 6.2082000837714412e-05  9.7551667520278523e-02 4.7481244417864419e-04 -2.2832964385183593e-04  9.7264743265753004e-02 4.6492218965864181e-04 4.2094290933396529e-05  9.7746922455197172e-02 5.3377214300052967e-04 7.7116344541457036e-05  9.7677524847132893e-02 6.4714272710387772e-04 -2.1857484979491870e-04  9.7416383135384144e-02 6.2998097945522107e-04 7.2465779958218228e-05  9.7876916366444383e-02 6.8699550704808216e-04 1.0762820342753080e-04  9.7818217033649790e-02 8.0623352787177326e-04 -1.9213557965280117e-04  9.6204925389849066e-02 -6.9608699361799317e-04 4.9047564124821315e-04  9.6264448014488177e-02 -7.5643807419717120e-04 8.0841790179467363e-04  9.6349966720755811e-02 -5.7702427392124114e-04 8.2790378790293653e-04  9.6299048538785945e-02 -5.0004662427005522e-04 5.1297243923049182e-04  9.6456934078466158e-02 -3.9755910612406491e-04 8.4205714329156991e-04  9.6416157802223124e-02 -3.1073954386743040e-04 5.2817293004135625e-04  9.6578566148484535e-02 -2.2519356692103935e-04 8.5391993057962645e-04  9.6548032598432573e-02 -1.3131046292675977e-04 5.4109818167433188e-04  9.6709384482556199e-02 -6.0568660629868322e-05 8.6576794581953579e-04  9.6688710952584245e-02 3.8503127941278401e-05 5.5523560896324296e-04  9.6844985329269717e-02 9.9640945424331339e-05 8.7986863370640789e-04  9.6833076035538784e-02 2.0212802159161756e-04 5.7381758950563963e-04  9.6985195579470440e-02 2.6605700724814484e-04 8.9933800498141921e-04  9.6977357579970988e-02 3.6602425028131683e-04 6.0081344724990709e-04  9.6740120970759375e-02 -5.6190616857604129e-04 2.3723721437497213e-04  9.6778241762258396e-02 -6.2645478586417021e-04 5.0533805381711258e-04  9.6858527531228977e-02 -4.3398382230548681e-04 5.2869738738845395e-04  9.6826097151174170e-02 -3.5386208987626337e-04 2.5683525904157987e-04  9.6954064098037085e-02 -2.4679229575205438e-04 5.4357950950115002e-04  9.6926207490773034e-02 -1.5456429580694629e-04 2.6787614106501059e-04  9.7062574084059161e-02 -6.7984607536113070e-05 5.5544410737831120e-04  9.7039927946506122e-02 3.2778177940009675e-05 2.7639466998269802e-04  9.7182522766959670e-02 1.0250041848971780e-04 5.6813643543261543e-04  9.7165175391962968e-02 2.0885531053887872e-04 2.8738418009682803e-04  9.7312552392165214e-02 2.6758924544579437e-04 5.8509796170911450e-04  9.7300674240375529e-02 3.7676231351443988e-04 3.0519864273612291e-04  9.7454257124009069e-02 4.3295411295249744e-04 6.1099995956938389e-04  9.7448778413778650e-02 5.3985363185675547e-04 3.3392519336045661e-04  9.7307236787321852e-02 -5.1177606815934050e-04 2.6009798999923140e-04  9.7377667192062797e-02 -3.0017078639376380e-04 2.7833964848148277e-04  9.7459778820124368e-02 -9.9919468468473422e-05 2.8824019469841190e-04  9.7554573412542173e-02 8.8193819223364019e-05 2.9561119832975468e-04  9.7663188475006601e-02 2.6415403050260804e-04 3.0486495588970660e-04  9.7786749540764606e-02 4.3067783862277823e-04 3.2043018753041987e-04  9.7910009388926675e-02 5.8410873788991222e-04 3.4621068215159509e-04  9.7253810666872220e-02 -3.3562799228970040e-04 -4.1590514240609071e-04  9.7318664793764581e-02 -6.8010576995979473e-05 -4.5482482599669730e-04  9.7392225473930061e-02 1.6939060791301211e-04 -4.9270228726520547e-04  9.7479848505987815e-02 3.8368574080640383e-04 -5.2375322003734659e-04  9.7581670265662501e-02 5.7886796684725422e-04 -5.4408000612128713e-04  9.7699189108985354e-02 7.5674606223145554e-04 -5.5042980709941829e-04  9.7838841261694953e-02 9.1980073595874904e-04 -5.4060127526668644e-04  9.1578310080894579e-02 -2.3684326209437315e-03 1.3685814743247971e-03  9.0512359305453371e-02 -3.0146358243296630e-03 9.6266287585002757e-04  9.1487247978753780e-02 -2.3748614117558150e-03 8.7863558914287663e-04  9.1924849548568555e-02 -2.1208285384013825e-03 8.8892011866174305e-04  9.1059590493067943e-02 -2.7853757171053873e-03 9.9414894096263944e-04  9.2029989180025584e-02 -2.1043745825931950e-03 1.3956609565227032e-03  9.2352075050176285e-02 -1.9264555305956201e-03 9.2600835171751197e-04  9.1571509752123817e-02 -2.6122737903183277e-03 1.0502506464620529e-03  9.2464779052862905e-02 -1.9176018596007123e-03 1.4415457980633385e-03  9.6648510090732206e-02 -4.0948294634465907e-04 -4.7499467646082270e-04  9.6741819136553026e-02 -1.4923997060347038e-04 -5.0561951783768887e-04  9.6845009681564981e-02 8.3802800947558150e-05 -5.3601722264776672e-04  9.6961569856003918e-02 2.9422642876140710e-04 -5.5992506967588590e-04  9.7090675712017196e-02 4.8584632674532119e-04 -5.7352784589480212e-04  9.7232032659775439e-02 6.6273500339250775e-04 -5.7440221645944348e-04  9.7390463689493931e-02 8.2746711732354652e-04 -5.6049470722663558e-04  9.7190387881870136e-02 -3.2848643701199334e-04 -6.1668767473704237e-04  9.6523000071127088e-02 -4.1178330508138245e-04 -7.4279702514787945e-04  9.6603887932233873e-02 -1.4142795959150027e-04 -8.1206026171165905e-04  9.7239640788927148e-02 -5.2706869001850290e-05 -6.8919419067237173e-04  9.6703113456417203e-02 9.8438078019781670e-05 -8.7222954040656376e-04  9.7312319643881290e-02 1.9079067040790905e-04 -7.5089089519699199e-04  9.6818049529014433e-02 3.1486955219889719e-04 -9.1982288224502480e-04  9.7401698659341313e-02 4.1100679304427278e-04 -8.0023162193228192e-04  9.6944871388340653e-02 5.1242946829646650e-04 -9.5376574624021077e-04  9.7504779589768192e-02 6.1237198665667401e-04 -8.3578722339821047e-04  9.7080025818124652e-02 6.9536651795025690e-04 -9.7411941670991816e-04  9.7619759886498680e-02 7.9706040993763347e-04 -8.5615644499883277e-04  9.7222647098391582e-02 8.6629947178749834e-04 -9.7945731447464770e-04  9.7744974653211289e-02 9.6795022376244182e-04 -8.5984674220398755e-04  9.5989674257054514e-02 -5.2863132116862403e-04 -5.4950582515280269e-04  9.6107908480764781e-02 -2.7223050820673048e-04 -5.7626005815056270e-04  9.6243262127662890e-02 -3.9308295249882530e-05 -6.0397398312476720e-04  9.6392465750690604e-02 1.6985718245902248e-04 -6.2523251666542158e-04  9.6551330315750750e-02 3.5923407054794048e-04 -6.3655734485172991e-04  9.6716018548187788e-02 5.3341136040068468e-04 -6.3601500311817735e-04  9.6883737218180055e-02 7.0045965688350490e-04 -6.2133864145507973e-04  9.2683314755155607e-02 -2.5971439151543075e-03 2.1195294857873533e-03  9.3337818953144663e-02 -1.7797057055436111e-03 2.0018391833998709e-03  9.2568443970106856e-02 -2.5543255602751527e-03 1.6717662753261246e-03  9.2061905737548785e-02 -2.6168760245417295e-03 1.5976809543552131e-03  9.3755992133025004e-02 -1.7493126715794035e-03 2.0442330069308855e-03  9.3197664260307234e-02 -2.5940117766858062e-03 2.1785005769009483e-03  9.3074313413726989e-02 -2.5371678924899438e-03 1.7361663475566533e-03  9.4166560392310861e-02 -1.7712844743976114e-03 2.0706881486206104e-03  9.3716773835135797e-02 -2.6398249841253323e-03 2.2189309015990311e-03  9.3587384740714458e-02 -2.5654182048846525e-03 1.7803172130041337e-03  9.6689170148732434e-02 7.2368602117198601e-04 -1.0787387092620131e-03  9.6366239568792506e-02 5.4602471822722464e-04 -7.5501040208479945e-04  9.5306360363214174e-02 -7.0221866080355175e-04 -3.7647059763669236e-04  9.5479845731677546e-02 -7.1123608683066220e-04 -9.2136655163482562e-05  9.4815777969033427e-02 -8.7178540906427218e-04 -7.0442689914309521e-05  9.5610838257601000e-02 -4.7853508449910366e-04 -8.7514904637794039e-05  9.5453086985123156e-02 -4.5238586828718328e-04 -3.9099482832452841e-04  9.4979523476521083e-02 -6.3166526140839353e-04 -7.1905862822113111e-05  9.5769350470038289e-02 -2.6410024770786330e-04 -8.6917576331822403e-05  9.5624172773812854e-02 -2.2872040833962762e-04 -4.0561067570650181e-04  9.5173327649413650e-02 -4.1707064251053698e-04 -7.1766709603263373e-05  9.5943133336232611e-02 -6.9319904788012380e-05 -8.4704519007785717e-05  9.5808492548274712e-02 -2.7811292519511470e-05 -4.1504125463139859e-04  9.5381019718393786e-02 -2.2455375711344407e-04 -6.7666082747617242e-05  9.6123441939642756e-02 1.0802392910960362e-04 -7.7462662660858042e-05  9.5999026312647756e-02 1.5386118660778455e-04 -4.1706825767773048e-04  9.5591752349348622e-02 -5.1215473469016838e-05 -5.8486920826531049e-05  9.6302485248186714e-02 2.7182638021181263e-04 -6.2946932346308478e-05  9.6189390404223057e-02 3.2030394609861501e-04 -4.1065581394329872e-04  9.5795617378430939e-02 1.0664944737431144e-04 -4.3841150622727462e-05  9.6472176253707270e-02 4.3015485687446323e-04 -3.9922019456070179e-05  9.6371963469809932e-02 4.7675772182506420e-04 -3.9534179920621071e-04  9.5979967415971049e-02 2.4934992167916219e-04 -2.3050505033876621e-05  9.7929462494957542e-02 -5.6737314954566516e-04 9.0088100907309749e-04  9.7413237380386153e-02 -6.2623907013983340e-04 1.0610369805318122e-03  9.7408653077481824e-02 -6.1994049407508491e-04 8.6392625463008654e-04  9.7478723198046388e-02 -4.3743015557448547e-04 8.7486241711395255e-04  9.7482766781256239e-02 -4.4531482843098883e-04 1.0691740039640478e-03  9.7984186033390749e-02 -3.7295661997226165e-04 9.0583256481531753e-04  9.7552611192652738e-02 -2.5842867818007460e-04 8.8543200306409359e-04  9.7555336442025395e-02 -2.6921400188503926e-04 1.0791806515911787e-03  9.8043956775672236e-02 -1.8664929131669076e-04 9.1477476595007803e-04  9.7636584571043863e-02 -8.6320003585313755e-05 8.9544692114084659e-04  9.7637384694065452e-02 -9.9361834024007097e-05 1.0891295546115632e-03  9.8112973912737239e-02 -9.6298047963308847e-06 9.2408589355034293e-04  9.7734767532546299e-02 7.8333865157658117e-05 9.0511163150089921e-04  9.7734148410620281e-02 6.3508851795326631e-05 1.0975556968459018e-03  9.8197576591729660e-02 1.5596344789296239e-04 9.3163165205529988e-04  9.7852581519090362e-02 2.3789102255537760e-04 9.1330576884021306e-04  9.7851636352575266e-02 2.2149708729360940e-04 1.1026742475481485e-03  9.8301660869087926e-02 3.0907529643064090e-04 9.3530468942942043e-04  9.7972781750287910e-02 3.8838111260712743e-04 9.2139355749182067e-04  9.7976505749808138e-02 3.7020077404964388e-04 1.1033708871400452e-03  9.8402749939171044e-02 4.5012780180531125e-04 9.3412003335988124e-04  9.3305397064496753e-02 -1.4599148614989300e-03 5.6883432094620738e-04  9.2408064983192789e-02 -1.8397086636491638e-03 5.3319408850338243e-04  9.3322295624185633e-02 -1.3962634706761730e-03 2.0217874509997563e-04  9.3551951823598212e-02 -1.2034854091610395e-03 5.7015701375650663e-04  9.1597921728633097e-02 -2.4306656705007667e-03 1.8134173517086220e-03  9.0441207321716510e-02 -3.1110191168852454e-03 1.4190107525754358e-03  9.2044348802154646e-02 -2.1612422583488335e-03 1.8473470661859713e-03  9.1014900687684488e-02 -2.8889990482145233e-03 1.4600834918420493e-03  9.2479845796591464e-02 -1.9797509750561345e-03 1.8959574037985577e-03  9.1547459772914258e-02 -2.7267899168155079e-03 1.5235448406313563e-03  9.2911663031979050e-02 -1.8561001626608304e-03 1.9500899865630677e-03  9.2892757280460758e-02 -1.7826078038816753e-03 1.4954982775407951e-03  9.3313221228651710e-02 -1.6916414837568710e-03 1.5487619997062781e-03  9.3725224464775769e-02 -1.6442233771189923e-03 1.5935945462584810e-03  9.4128957722671172e-02 -1.6430996177212468e-03 1.6241547369823842e-03  9.6161048455963558e-02 -6.4803868801616713e-04 2.4052537790687867e-04  9.6075321143044623e-02 -6.0300137793103655e-04 -2.6122843953091234e-05  9.6184641628308226e-02 -3.7396676183709009e-04 -1.4475136045588933e-05  9.6262715923105174e-02 -4.3655313181860714e-04 2.5761593063202716e-04  9.6316925505816345e-02 -1.6381146110550790e-04 -9.5669134826200055e-06  9.6386403399575424e-02 -2.3670929555352901e-04 2.6785173447025181e-04  9.6464013434762769e-02 2.9937993991686115e-05 -4.8218247959394904e-06  9.6524998547265206e-02 -4.9899766530716204e-05 2.7639524048583375e-04  9.6619988349607694e-02 2.0892267453929568e-04 4.2312552206110244e-06  9.6672598790577116e-02 1.2474563586100220e-04 2.8752083856654860e-04  9.6779755409210355e-02 3.7728849875465800e-04 2.0788419178972425e-05  9.6824374674704353e-02 2.9066828518796103e-04 3.0472268537266991e-04  9.6938098213433813e-02 5.4076647509460020e-04 4.8427880153661151e-05  9.6977090745120537e-02 4.5427900805442007e-04 3.3122490679765652e-04  9.2527059501706657e-02 -1.8297577269512605e-03 9.4474743426094167e-04  9.2850373616549575e-02 -1.5629659586493408e-03 9.5194503974612560e-04  9.3195538915554432e-02 -1.3524764482490937e-03 9.7878826363170107e-04  9.8425888176392362e-02 -5.2904744074484355e-04 8.5955743238358081e-04  9.7872997045400117e-02 -5.6353368938674990e-04 1.0946976926728802e-03  9.8462144510412075e-02 -3.2094503731257404e-04 8.6834195999973716e-04  9.7927738221379873e-02 -3.6956316521261166e-04 1.1016876858210912e-03  9.8505992333979969e-02 -1.2157586081531520e-04 8.8197883782067108e-04  9.7984754391061232e-02 -1.8537968811809343e-04 1.1125961639832868e-03  9.8556518055951878e-02 6.5976607006986714e-05 8.9495889321518655e-04  9.8051271245313001e-02 -1.0555803834434287e-05 1.1235958098372092e-03  9.8620378332663738e-02 2.3769629363602250e-04 9.0409238443406542e-04  9.8133444153150132e-02 1.5388588375448865e-04 1.1316466180279724e-03  9.8699965671372417e-02 3.9078422192741674e-04 9.0686416744558296e-04  9.8238667699965310e-02 3.0727637631461298e-04 1.1336711213751226e-03  9.8780750362719896e-02 5.2578356024936734e-04 9.0409236773371360e-04  9.8346335546475636e-02 4.4658351311517070e-04 1.1283953689618703e-03  9.5539060783960447e-02 -7.5105892264331698e-04 1.9465720045927650e-04  9.4885417180399265e-02 -9.1079773392046940e-04 2.4671251402097699e-04  9.5033396830284236e-02 -6.8505297228512580e-04 2.5773419127238971e-04  9.5661059175568705e-02 -5.3222797381074756e-04 2.0838672241972042e-04  9.5214342900412183e-02 -4.7772155334240365e-04 2.6700709140272712e-04  9.5810180912346110e-02 -3.2815680885897434e-04 2.1618433206540400e-04  9.5411880754932329e-02 -2.9125077477304678e-04 2.7854643631979796e-04  9.5975462515606805e-02 -1.4051928675635195e-04 2.2360064023318655e-04  9.5612765812098446e-02 -1.2346059885791016e-04 2.9340146946528381e-04  9.6147158470636401e-02 3.2054200415618280e-05 2.3411675659886448e-04  9.5804836063426685e-02 2.9467413409709583e-05 3.1183103447835999e-04  9.6316560126544382e-02 1.9355828149318730e-04 2.5022478389645432e-04  9.5975627206851280e-02 1.7309544415394825e-04 3.3375435416620311e-04  9.6476018978536623e-02 3.5074899880456473e-04 2.7541747358272802e-04  9.9177306856690128e-02 -4.7761192758390163e-04 1.2142950554128398e-04  9.8776481169013414e-02 -4.8385267450027985e-04 1.0201766414611425e-04  9.8826424363207682e-02 -4.4628240086349468e-04 1.7233281438189794e-06  9.8863935788586002e-02 -1.9746074525573548e-04 -1.9178746408163170e-05  9.8821774788063046e-02 -2.4783749368271043e-04 9.6956930630309914e-05  9.9241170067839751e-02 -2.5760629198882278e-04 1.0973463279072087e-04  9.8902781900629996e-02 3.8591703995067899e-05 -5.3260857453353832e-05  9.8862287534344381e-02 -1.7440708545292526e-05 8.0751796338613405e-05  9.9297202514877475e-02 -4.4563359581710301e-05 8.5331355742827205e-05  9.8935882805537306e-02 2.6776106209510725e-04 -8.4791895408279107e-05  9.8897381078789606e-02 2.0675