<?xml version="1.0"?>
<VTKFile type="UnstructuredGrid"  version="0.1"  >
<UnstructuredGrid>
<Piece  NumberOfPoints="996" NumberOfCells="4275">
<Points>
<DataArray  type="Float64"  NumberOfComponents="3"  format="ascii">3.790219885451639 1.336987898097291 3.409944751710889  3.919899257800957 1.349659894350455 3.420916386102715  3.874057161004134 1.411371160092791 3.518156173859071  3.875998036616972 1.361000199574543 3.552930510333322  3.922713465846265 1.299230689599719 3.453119511558561  3.79201321421362 1.286870255184708 3.44234002974537  3.877901534226098 1.310689219733414 3.587771703740649  3.925495974893083 1.24883784376596 3.485378563266717  3.793760672484226 1.236790923932431 3.474781388961499  3.879796329050111 1.260415705894742 3.622626312682258  3.933856985139269 1.097717296912597 3.582096401313585  3.798994120667595 1.086637236866642 3.572036948811886  3.8836408452702 1.159881776415965 3.692207393308089  3.797229054224419 1.13669239840557 3.539662364013837  3.885633140977914 1.109560727568339 3.726849718777613  3.936714469568598 1.047289691777819 3.614200487820281  3.800819635150476 1.036548837660143 3.604322347336137  3.307205889540898 1.744651433536515 3.863120474782638  3.448338176997094 1.740616948230485 3.861970760661237  3.383135941321758 1.834635834180544 3.924501317603635  3.382082647881189 1.800567072472988 3.98343330480804  3.446565462704581 1.701702976030399 3.916324035353738  3.306311993704802 1.706570856166121 3.917976187668583  3.444816290860492 1.662940449261129 3.970630376732639  3.305467709862848 1.668600684151035 3.972789386367943  3.381090788234235 1.766637540278218 4.042281615380709  3.443082195331728 1.624270512115789 4.024863517709118  3.304652396934132 1.630718446145858 4.027531717660678  3.380128920600091 1.732802845312735 4.101027812028589  3.441380778236601 1.585652184106103 4.07902539221794  3.303863056714754 1.59288347867927 4.082196116462001  3.379177816394625 1.699009135235948 4.159656030699764  3.303079969815262 1.555048927002185 4.136760638425018  3.43969539130375 1.547043445836888 4.133062878901434  3.378230654960553 1.665217951941637 4.218159419759419  3.302245215874741 1.517164074905717 4.191171110149516  3.438005528030623 1.508393310177325 4.186914568010851  3.377238483960879 1.631373446793401 4.276483376926273  3.950633343717449 1.474859847639299 3.602635626482695  4.107144884559957 1.473512502739929 3.588823578248759  4.039980520585516 1.548229276995341 3.690911071966469  4.041554120962882 1.498133040879709 3.731866348289407  4.110257563944742 1.422366772309559 3.625211309160816  3.952828703661273 1.424466226271032 3.640098581811354  4.113350735937581 1.371286150640944 3.661672135226549  3.954991980384515 1.374155617772416 3.677638716391146  4.043085951435222 1.4481480595887 3.772902455118199  3.957152510046542 1.323892489026738 3.71519423913275  4.116446138270259 1.320248600300194 3.698148549577009  4.044618932158158 1.398226466671292 3.813953592881039  3.959330801958504 1.273648482954173 3.752714412793017  4.119557846378401 1.269224643493258 3.734593241834187  4.046176607252645 1.348330300862293 3.854964591181943  3.961544428753538 1.223392051320928 3.790151627060736  4.122696764383712 1.218184253773695 3.770959612795805  4.047778396397644 1.298422085174999 3.895882197835162  3.963809910848199 1.173081848207531 3.827452827834299  4.125879585160408 1.167091998014243 3.807197796105984  4.049445522763955 1.248465213872941 3.936640418104221  4.647122213012714 1.781784227920057 3.931000684098614  4.792717524673092 1.791577731519552 3.93428819870781  4.673589667587787 1.887419889754674 4.022633587923739  4.6725313241435 1.843400391190737 4.084752976614333  4.796312067345836 1.73804634311288 3.985374495963003  4.649840968344114 1.729424126331409 3.982373598755002  4.652504240867977 1.677191265277316 4.033776368063616  4.799858647011806 1.684635462198693 4.036465459858852  4.671373045305248 1.799548597349555 4.146839994495474  4.655170173494651 1.625038264130869 4.085157039583494  4.80340263677106 1.631301795012253 4.087521828311845  4.670194758964044 1.755773350593725 4.208877528058636  4.806969333078184 1.577988685196371 4.138516010107108  4.657865185216171 1.572914282246382 4.136465372690602  4.669047159683084 1.712026601290566 4.270825970054948  4.810581506038329 1.524669579275666 4.189407840785521  4.660616230188422 1.52077363601799 4.187669365243877  4.667978733042442 1.668254356489355 4.332660838216143  4.814246683914056 1.471306044320721 4.240178912007699  4.66345378259075 1.468586080316675 4.238740364383411  4.667028483598727 1.624406000534985 4.394362380144915  4.749793613621895 1.707503437541614 3.835732708246462  4.75404817722641 1.651832551777005 3.879955217077107  4.75827191335163 1.596249207351344 3.924199278210969  4.762495177131938 1.540729762953843 3.968427435535079  4.766736518890696 1.48523969693404 4.012602201144335  4.771012055932987 1.429747519031258 4.056688413307742  4.775346896318733 1.374225838424669 4.100657647386655  3.828422210374378 1.711565806937708 3.857297772953  3.799489855455553 1.620037492420944 3.774238660589359  3.92751207935333 1.616594438440716 3.772890765801107  3.927230759358681 1.569525340331722 3.819367692227392  3.798042517895224 1.574111036944311 3.821338054841772  3.826732565306933 1.668478994470679 3.909400280433607  3.926893666144065 1.522601481467421 3.865900704853053  3.796536240927261 1.528326444341898 3.868480550601045  3.824984918693764 1.625569949892569 3.961515207462467  3.92656723808317 1.475773125956797 3.912434232560479  3.795041412343113 1.482638870500594 3.915619593691249  3.823243121104372 1.582770681178976 4.013588043051217  3.926276550205048 1.42898157357116 3.958910191861302  3.793580041018737 1.436992809805699 3.962701156158709  3.82155043668128 1.540021853378858 4.06558725751123  3.926044336662679 1.382175878569013 4.005274964396714  3.792169369385471 1.391338822990668 4.009669295053644  3.819922313351209 1.497264749932845 4.117459358597816  3.9258942960497 1.335302344453648 4.051478451452383  3.79085297298058 1.345627754807906 4.056469137523599  3.818377408333647 1.454439441066514 4.169144978195101  3.167965991129223 1.200431501765426 3.336385668091492  3.07949998809487 1.255797816186561 3.419128819389517  3.271776118196879 1.257432026097814 3.415378505336167  3.079374547333857 1.305150762950908 3.3836074696325  3.272611237819702 1.207701887131701 3.449192361557729  3.169275011797229 1.150308440727694 3.369627477608824  3.07965377666468 1.206480811641118 3.45467267465227  3.273449591416256 1.158002420391875 3.483007264248368  3.170587896994554 1.100212111778966 3.402867284117978  3.079816755956439 1.157192485171554 3.490218009005503  3.274285601144584 1.108317659291213 3.516800281875048  3.171893722957972 1.050129932694758 3.436086867051727  3.079977559506848 1.107917697564278 3.525741771294266  3.275111500296054 1.058629907829338 3.550546977495067  3.173179677288092 1.000047815765956 3.469267440162593  3.080124295637362 1.058638807680919 3.56122092817491  3.275912151641426 1.008922359257246 3.584218524400409  3.174422448541586 0.9499496577499864 3.502395561961504  3.080239253269288 1.009333690770046 3.596635920609171  4.014270843716327 1.396366667735144 3.483475779475669  4.01745217763043 1.345684561416709 3.517058573706569  4.020610951109319 1.295047206923282 3.550707443940782  4.023765348168902 1.244435631846454 3.58437370262366  4.026930909804467 1.193829138052156 3.618016353159184  4.030121956903804 1.143202286305308 3.651597132566656  4.033355996740092 1.092522601544681 3.685072219913691  3.27095379649371 1.307204146229053 3.381590830738246  3.182109175340238 1.355797241391513 3.453929439554784  3.182107750436118 1.306646117408925 3.490133934946587  3.182128882117814 1.257545954782339 3.526369385346597  3.182160079997571 1.208481734600451 3.562606562271366  3.18219271064286 1.159434315308878 3.598817446904296  3.182217043909862 1.110382165754597 3.634972513432899  3.182217864580826 1.061300051156048 3.671042499844319  3.530009830169142 1.31029064495894 3.381941137353115  3.623461245705041 1.360540094753808 3.452182585692352  3.479341250868802 1.385813357737382 3.492132538576421  3.479529907709536 1.336551811898955 3.527843930168689  3.624642033032542 1.310756424838477 3.486104987435217  3.5311951165771 1.260521103740833 3.414661843741484  3.479699734138264 1.287350395001962 3.563592493330938  3.625791878393005 1.261025405494242 3.520070924981969  3.532354342252376 1.210791611487062 3.447410977225488  3.4798667004107 1.238191974333019 3.599344112749477  3.626932021022947 1.211329149706595 3.554044143493369  3.533503272363274 1.161092355205659 3.480161200071116  3.480038786609969 1.189053773241376 3.63506597037538  3.62807819544821 1.161648286669335 3.58799163940933  3.534653633231143 1.111409142115737 3.512886262710446  3.480223036387569 1.139913903966427 3.670721119366858  3.629245581893222 1.11196199608833 3.621879110305799  3.535817044122702 1.061726647470038 3.545558496596645  3.480432345349982 1.090752088501576 3.706274624943292  3.630452117442197 1.062247202763695 3.655670210949605  3.537008559644506 1.012028737134234 3.578149556203038  2.912481168478045 1.537300764534907 3.664238826433088  2.973199475456725 1.472253516531926 3.593321481192482  3.04949615389297 1.539311926159723 3.673784946651008  3.047235996338076 1.493159980192244 3.717492015878075  2.970872103182418 1.424683991833985 3.634045930876633  2.909072810349548 1.491176794184712 3.707860955586797  3.045017897279679 1.447086357099718 3.761239514357669  2.968573853588214 1.377178047972671 3.674818954822574  2.905686799353834 1.445131498054894 3.751522516062927  3.042822837383224 1.40106928434395 3.804987361439217  2.966291216971807 1.329718709456027 3.715597979551585  2.902313762295166 1.39913869765159 3.795185126732891  3.040638875757349 1.35507485658131 3.848697580825335  2.964015648871317 1.282276774900971 3.756347474464121  3.71392931592698 1.557441321771129 3.707794749105469  3.795162986350797 1.470164111742668 3.6014614821
[...]
<PointData  Vectors="f_16"> 
<DataArray  type="Float64"  Name="f_16"  NumberOfComponents="3" format="ascii">6.8226143436699624e-02 -2.5724508072623251e-02 1.5425075596294446e-02  6.7205427067632426e-02 -2.5717791037140534e-02 1.5876422362129175e-02  6.7328786418611716e-02 -2.6151370261911448e-02 1.6332033930834176e-02  6.7271414236522109e-02 -2.6554578064123174e-02 1.6233233564908710e-02  6.7201353605691502e-02 -2.6133396728138948e-02 1.5716139495365600e-02  6.8170546153871484e-02 -2.6126283958758090e-02 1.5275438084210313e-02  6.7220364587121537e-02 -2.6907690553773771e-02 1.6112700998081379e-02  6.7200674441491484e-02 -2.6499446555953092e-02 1.5541289637654552e-02  6.8124767965606403e-02 -2.6483808948408547e-02 1.5113664344266973e-02  6.7170419721331254e-02 -2.7217859061745363e-02 1.5971494946505998e-02  6.7187345036128984e-02 -2.7366577060714641e-02 1.4910976253100840e-02  6.7985382125701779e-02 -2.7343592139200540e-02 1.4528545685407674e-02  6.7057138245146072e-02 -2.7726583453157136e-02 1.5624298009489765e-02  6.8037166381704595e-02 -2.7088716571086476e-02 1.4743062506955637e-02  6.6985371193286181e-02 -2.7927921411954874e-02 1.5415623920605538e-02  6.7168702447248041e-02 -2.7587411364664572e-02 1.4655152528788276e-02  6.7921246844852984e-02 -2.7569668485604978e-02 1.4290190401319465e-02  7.0228769837814994e-02 -2.5211211855034842e-02 1.5979368955985240e-02  6.9229179772551330e-02 -2.5790965386224760e-02 1.6473706393266247e-02  6.9358479295457229e-02 -2.5389915541289120e-02 1.6392261652320064e-02  6.8991557542398232e-02 -2.5527500132904800e-02 1.6656037054004327e-02  6.8876435676021447e-02 -2.5991904453225311e-02 1.6675600552906747e-02  6.9838617257422075e-02 -2.5396675114465118e-02 1.6191601384819027e-02  6.8528850354879031e-02 -2.6156588937311067e-02 1.6845951767060281e-02  6.9443628244570663e-02 -2.5546723308192954e-02 1.6370033892590074e-02  6.8620163631219019e-02 -2.5628252392661911e-02 1.6882044969297128e-02  6.8178137960268712e-02 -2.6287959958220600e-02 1.6981614677029369e-02  6.9041659111390916e-02 -2.5664699870324600e-02 1.6513489068363592e-02  6.8242704467081139e-02 -2.5697757211168390e-02 1.7072076231268770e-02  6.7817527035693950e-02 -2.6390324248403808e-02 1.7084291184553665e-02  6.8638611439100661e-02 -2.5763219231549259e-02 1.6629929907951244e-02  6.7859096214895429e-02 -2.5750436885357140e-02 1.7230089327905714e-02  6.8228225964699102e-02 -2.5844849919090238e-02 1.6723962809997883e-02  6.7442156965944203e-02 -2.6471547514546688e-02 1.7160581777962841e-02  6.7460878888033024e-02 -2.5786618442825641e-02 1.7359939638888582e-02  6.7802630048218807e-02 -2.5908849688603883e-02 1.6797027201730885e-02  6.7044246789433964e-02 -2.6542833576039454e-02 1.7218296672629231e-02  6.7041323477001244e-02 -2.5811919374844835e-02 1.7463470038945744e-02  6.6542898783974722e-02 -2.6428212030733419e-02 1.7022701004783279e-02  6.5403980934980080e-02 -2.6250107957282300e-02 1.7360277886296668e-02  6.5672992376383785e-02 -2.6640803952834920e-02 1.7709342542862761e-02  6.5624209299395053e-02 -2.7033596320301542e-02 1.7713384979153115e-02  6.5435930930037522e-02 -2.6665440256956253e-02 1.7276819014322473e-02  6.6489260164402236e-02 -2.6828984046178853e-02 1.6969978979236633e-02  6.5464791040194259e-02 -2.7024047368934739e-02 1.7168258483579484e-02  6.6437602722661832e-02 -2.7175620398130970e-02 1.6889872502849748e-02  6.5576843141807006e-02 -2.7369614574113153e-02 1.7683518469456740e-02  6.6385461590441244e-02 -2.7475939058983746e-02 1.6783996142528814e-02  6.5489084379586504e-02 -2.7332900099179359e-02 1.7035493928843366e-02  6.5528004670136683e-02 -2.7655219987973614e-02 1.7621665440649369e-02  6.6329589706694586e-02 -2.7735062884623709e-02 1.6652826121989338e-02  6.5508399225130909e-02 -2.7597404381729168e-02 1.6878308490092461e-02  6.5474899472233589e-02 -2.7896233536848832e-02 1.7529909798662178e-02  6.6266672741701213e-02 -2.7955639196420533e-02 1.6496753812921764e-02  6.5522673334789130e-02 -2.7820671545921230e-02 1.6695957639422523e-02  6.5414836227736958e-02 -2.8096845398762553e-02 1.7409872683388589e-02  6.6194149463544502e-02 -2.8138637121453522e-02 1.6316894356370411e-02  6.5530965172264935e-02 -2.8003631454342398e-02 1.6488347794563589e-02  6.5345178460534101e-02 -2.8260741532143384e-02 1.7263262278476764e-02  6.0858976920213172e-02 -2.5767403844559528e-02 1.9779361371125390e-02  5.9825152418152477e-02 -2.5191135830511805e-02 1.9905618552931218e-02  6.0549423518376680e-02 -2.5701973160384521e-02 2.0059635155607613e-02  6.0617567533083339e-02 -2.5951997557039055e-02 2.0339454274290118e-02  6.0056243306915905e-02 -2.5523694018092697e-02 2.0021335381731089e-02  6.1017405638038799e-02 -2.6101564618022741e-02 1.9916729812807406e-02  6.1146456798228457e-02 -2.6352826549104043e-02 2.0008065068332952e-02  6.0244772125228281e-02 -2.5772027438809356e-02 2.0095703359271008e-02  6.0673112125643663e-02 -2.6120549078479209e-02 2.0535919377693876e-02  6.1263347867470265e-02 -2.6546879047158266e-02 2.0052670249849990e-02  6.0420300355259852e-02 -2.5964434086958109e-02 2.0132850950005225e-02  6.0723710391896259e-02 -2.6237449444102938e-02 2.0672046665145983e-02  6.0594284337154351e-02 -2.6112147466028197e-02 2.0134186986438138e-02  6.1378617684916509e-02 -2.6694592061735134e-02 2.0056739745844362e-02  6.0773103696389823e-02 -2.6314827375167209e-02 2.0755977894925476e-02  6.0778573038516436e-02 -2.6222071414882177e-02 2.0102985077678666e-02  6.1500957959284078e-02 -2.6803878172481681e-02 2.0025432586016526e-02  6.0826792465105854e-02 -2.6360185695232578e-02 2.0795076354047645e-02  6.0981835220445139e-02 -2.6298531051730731e-02 2.0040454475978769e-02  6.1635804868365486e-02 -2.6881864515411878e-02 1.9965145179880763e-02  6.0888558132709575e-02 -2.6375765577154001e-02 2.0794227662488646e-02  6.0274622000710674e-02 -2.5199783761446479e-02 1.9502186405841053e-02  6.0524025194125808e-02 -2.5560876218841004e-02 1.9508167786337689e-02  6.0746425767237093e-02 -2.5856865638890059e-02 1.9495942534940202e-02  6.0951151711374385e-02 -2.6098412370050457e-02 1.9459607222166650e-02  6.1151129690698629e-02 -2.6294216981892146e-02 1.9397217093845742e-02  6.1356928599011810e-02 -2.6450433521880434e-02 1.9308869717194543e-02  6.1575128947532393e-02 -2.6567878292892248e-02 1.9193016047444555e-02  6.6696471556851891e-02 -2.6825337377977623e-02 1.7730030428496066e-02  6.7164488430071209e-02 -2.6731892104160774e-02 1.7364285105877498e-02  6.6268154077726876e-02 -2.6834098316140066e-02 1.7747917829761744e-02  6.6116897253929233e-02 -2.7183302015700666e-02 1.7838542130659364e-02  6.6950306318614303e-02 -2.7051137136173881e-02 1.7466502381403837e-02  6.6453543862280862e-02 -2.7099449770336077e-02 1.7911029440237741e-02  6.5973746665813904e-02 -2.7476334182835998e-02 1.7886825757318158e-02  6.6755043281136142e-02 -2.7324067389422304e-02 1.7528239585532530e-02  6.6223477837143857e-02 -2.7325215049598964e-02 1.8043862013467193e-02  6.5831555199063654e-02 -2.7723216304826829e-02 1.7898367900818633e-02  6.6563109289359185e-02 -2.7556386128446318e-02 1.7555391716590790e-02  6.5997180580992132e-02 -2.7513761761441737e-02 1.8133151671063850e-02  6.5685369546446187e-02 -2.7930649737608716e-02 1.7875513223791856e-02  6.6366258938970510e-02 -2.7753381195890773e-02 1.7550003058449094e-02  6.5766348739224406e-02 -2.7671218566360012e-02 1.8182806573194470e-02  6.5530119531480358e-02 -2.8103830508465225e-02 1.7819992174112131e-02  6.6158075347198156e-02 -2.7920016621540762e-02 1.7513464087007671e-02  6.5524404974742378e-02 -2.7802648943180564e-02 1.8194710509655473e-02  6.5361152848385062e-02 -2.8247157670362372e-02 1.7733431274801283e-02  6.5930959916449608e-02 -2.8060568283485604e-02 1.7444755734870549e-02  6.5268838308330288e-02 -2.7911324022000941e-02 1.8169937893623960e-02  7.3124068479862303e-02 -2.5339408854436550e-02 1.2438415372711696e-02  7.3635356417845341e-02 -2.5252649136813136e-02 1.2654349515018854e-02  7.2104901381934483e-02 -2.5607879583312745e-02 1.3354182976129687e-02  7.3892225893480948e-02 -2.4934982345010608e-02 1.2664130043957516e-02  7.1911944026483099e-02 -2.5913256520239326e-02 1.3278068818167059e-02  7.2934800090401805e-02 -2.5643649541051545e-02 1.2356520353928735e-02  7.3375129653875160e-02 -2.5536539787706175e-02 1.2625164444715360e-02  7.1720220291915271e-02 -2.6190177715820877e-02 1.3186804777589968e-02  7.2745800975044669e-02 -2.5919852619147695e-02 1.2259825814049776e-02  7.3117092832230876e-02 -2.5791248751568734e-02 1.2577493654056998e-02  7.1530934772927018e-02 -2.6440437316148705e-02 1.3079196159945511e-02  7.2560629317290959e-02 -2.6170693463413826e-02 1.2146788069864531e-02  7.2862649946421360e-02 -2.6019192971492796e-02 1.2511751171804300e-02  7.1345043102258698e-02 -2.6665911835571841e-02 1.2954953953317500e-02  7.2382706889508541e-02 -2.6397985106215320e-02 1.2015641407649437e-02  7.2613298995275813e-02 -2.6221360698223495e-02 1.2427455199583737e-02  7.1163699151260418e-02 -2.6867891894636974e-02 1.2814160263135322e-02  7.2217409746182973e-02 -2.6602800710486280e-02 1.1863929137986102e-02  7.2371124987228905e-02 -2.6396765240433606e-02 1.2322727494385909e-02  6.6341299792897740e-02 -2.5919904402940067e-02 1.6524732229668698e-02  6.6361112986869461e-02 -2.6338192036583944e-02 1.6387559022273290e-02  6.6381190167735027e-02 -2.6705949239994066e-02 1.6232668905041547e-02  6.6399006297733015e-02 -2.7028433078390188e-02 1.6058728281769692e-02  6.6412795982385475e-02 -2.7310375148523011e-02 1.5864061943302220e-02  6.6420896676323726e-02 -2.7554778971042117e-02 1.5646422430851802e-02  6.6421082555564809e-02 -2.7762603819949421e-02 1.5402919971755762e-02  7.2297616499215914e-02 -2.5272989387078726e-02 1.3417626796391510e-02  7.2853093995478665e-02 -2.5200459197483753e-02 1.3501849662373697e-02  7.2594606879479232e-02 -2.5517535017565963e-02 1.3494428800623091e-02  7.2335983536960566e-02 -2.5802370597004763e-02 1.3467738582625918e-02  7.2078931031092752e-02 -2.6057636579859371e-02 1.3422813224456771e-02  7.1823977336934436e-02 -2.6285208243267116e-02 1.3360116017182306e-02  7.1571525800814079e-02 -2.6486346583988761e-02 1.3279929017117539e-02  7.1321742918399322e-02 -2.6662682125276130e-02 1.3183138309078494e-02  7.0266713138904591e-02 -2.5550693560037793e-02 1.4373512518323878e-02  6.9386511525144912e-02 -2.5837494057966145e-02 1.5143774049537654e-02  7.0383046401259322e-02 -2.5789299953136769e-02 1.4872672857104832e-02  7.0192447136846844e-02 -2.6138479654523001e-02 1.4816573775543219e-02  6.9258123859988946e-02 -2.6212487706245888e-02 1.5043435225838109e-02  7.0141448489296487e-02 -2.5918291677149548e-02 1.4253939192184760e-02  7.0011370276442955e-02 -2.6452167370946352e-02 1.4745785464118139e-02  6.9138106933676946e-02 -2.6548625353836213e-02 1.4929081986218045e-02  7.0022679756579095e-02 -2.6250525260546779e-02 1.4123550375349427e-02  6.9834291125511386e-02 -2.6733171746388167e-02 1.4658399010439943e-02  6.9021905483669585e-02 -2.6850172668143969e-02 1.4798741327199719e-02  6.9907350253503364e-02 -2.6551426022780371e-02 1.3980285242780882e-02  6.9656676580754515e-02 -2.6984344703709254e-02 1.4553703531118631e-02  6.8904794790413990e-02 -2.7120334091083918e-02 1.4650973086408114e-02  6.9792113353487548e-02 -2.6824494291161197e-02 1.3821770496166071e-02  6.9474595181928875e-02 -2.7208617099250394e-02 1.4430922317577661e-02  6.8782049971132672e-02 -2.7361686932844079e-02 1.4484263924589321e-02  6.9673456346320523e-02 -2.7072545347204220e-02 1.3645980109388011e-02  6.9282669579591269e-02 -2.7408806343415821e-02 1.4289582811677836e-02  6.8649010991066448e-02 -2.7575727448087377e-02 1.4296836659634864e-02  6.9548450268573342e-02 -2.7298011530431113e-02 1.3451401295777236e-02  7.4578554781667708e-02 -2.3969314352329248e-02 1.3462127968254562e-02  7.4281251298928985e-02 -2.4427226465350765e-02 1.3384984276923960e-02  7.3279480260942248e-02 -2.4581767016357736e-02 1.4133047972585060e-02  7.2853531203555658e-02 -2.4823975855450642e-02 1.4245751254756909e-02  7.3861177924116658e-02 -2.4680135302565399e-02 1.3478202270945249e-02  7.4091823766808507e-02 -2.4188629381256290e-02 1.3584411671794460e-02  7.2436871287943891e-02 -2.5037832342903861e-02 1.4329325547777130e-02  7.3451740413008046e-02 -2.4905062503965760e-02 1.3542077448810119e-02  7.3623172319716226e-02 -2.4382085325465055e-02 1.3677310797578548e-02  7.2024561233516360e-02 -2.5224266126428512e-02 1.4388211992632877e-02  7.3049390954631477e-02 -2.5103134283423967e-02 1.3581925897640217e-02  7.3163445333559743e-02 -2.4552045470975798e-02 1.3745663416247007e-02  7.1613309805366579e-02 -2.5384416108240080e-02 1.4425492543008378e-02  7.2649621571181586e-02 -2.5275045724259128e-02 1.3601382247527962e-02  6.7967376564722112e-02 -2.6528381273573133e-02 1.6811853264415776e-02  6.7700897920291575e-02 -2.6397817571653614e-02 1.6555754057631534e-02  6.6969591236205592e-02 -2.6648560607751396e-02 1.7186361920109607e-02  6.6833598340376180e-02 -2.7020663315089250e-02 1.7211190153188533e-02  6.7573376653528944e-02 -2.6778055655551396e-02 1.6520086456852528e-02  6.7757045950275194e-02 -2.6865690283990853e-02 1.6867581609459913e-02  6.6705840870962152e-02 -2.7337390010117889e-02 1.7199674914668985e-02  6.7457004390413328e-02 -2.7111000915669516e-02 1.6460461871879144e-02  6.7556002076958402e-02 -2.7159347902487120e-02 1.6893222581854706e-02  6.6579912814414222e-02 -2.7609829308723490e-02 1.7157652465712193e-02  6.7343237501250208e-02 -2.7401598260103140e-02 1.6376238657388111e-02  6.7358076715649029e-02 -2.7412618968980070e-02 1.6888752281230195e-02  6.6450338220541416e-02 -2.7843720397950401e-02 1.7087138154627843e-02  6.7226249173889668e-02 -2.7654400559393225e-02 1.6267958686965990e-02  6.7156788406222939e-02 -2.7630194429582412e-02 1.6855885099805280e-02  6.6311962553109963e-02 -2.8042869255630980e-02 1.6989589371694862e-02  6.7101062448525331e-02 -2.7872851549150656e-02 1.6136063025426396e-02  6.6947097151679208e-02 -2.7817272094492074e-02 1.6796300453762614e-02  6.6158323202134522e-02 -2.8209027120254821e-02 1.6865961587777988e-02  6.6961095098108200e-02 -2.8059826016536664e-02 1.5981704332371404e-02  6.6725766625521904e-02 -2.7984176958627056e-02 1.6714971845627213e-02  6.3982961972253852e-02 -2.6948439324185582e-02 1.8881691647037166e-02  6.3246173593239211e-02 -2.6817359886310711e-02 1.9298510999512661e-02  6.2918486303925353e-02 -2.6689846048861855e-02 1.9284794448711829e-02  6.2726649595882242e-02 -2.6753734773340043e-02 1.9681098839589132e-02  6.3123161655435842e-02 -2.7026242688081348e-02 1.9603275411815484e-02  6.3744875499148479e-02 -2.7007740816873241e-02 1.9268933975612444e-02  6.2540638118737488e-02 -2.6780254683167564e-02 1.9984320933043028e-02  6.3003611152636183e-02 -2.7176568327861521e-02 1.9821940242301533e-02  6.3518427208812289e-02 -2.7031920824747400e-02 1.9558752256281581e-02  6.2359268642887211e-02 -2.6777329538209299e-02 2.0209412764456088e-02  6.2885352700115943e-02 -2.7282708023480155e-02 1.9974835136294822e-02  6.3300900425439829e-02 -2.7031011590446453e-02 1.9776313132240000e-02  6.2180363094485880e-02 -2.6751772075457581e-02 2.0370968672623817e-02  6.2766606237497802e-02 -2.7355899608919137e-02 2.0073235654776887e-02  6.3084990032426860e-02 -2.7010816147935275e-02 1.9936118531923459e-02  6.2001521100987791e-02 -2.6709130594128230e-02 2.0478491387172105e-02  6.2647289498118569e-02 -2.7403124802559273e-02 2.0123084760717332e-02  6.2867094823203351e-02 -2.6974554261621011e-02 2.0045796340876956e-02  6.1825307963247852e-02 -2.6653447933970908e-02 2.0540406099191381e-02  6.2526672651881374e-02 -2.7431086755100437e-02 2.0125408500948679e-02  6.2647420651892938e-02 -2.6922813636494881e-02 2.0108712575063376e-02  6.2997322836343572e-02 -2.5290705403667367e-02 1.7741307960590369e-02  6.2051619631967064e-02 -2.5011624793614930e-02 1.8066038171956431e-02  6.2402001138151870e-02 -2.5646172560071196e-02 1.8471753987566484e-02  6.2609867940176062e-02 -2.6041353032384508e-02 1.8366385751035025e-02  6.2301302698285571e-02 -2.5398250234933643e-02 1.7890639626019802e-02  6.3212474122239945e-02 -2.5690851837225567e-02 1.7571020235678417e-02  6.2784801029728027e-02 -2.6375488156941483e-02 1.8246371898256782e-02  6.2516950132254320e-02 -2.5738226738457177e-02 1.7712589573825373e-02  6.3393979191760555e-02 -2.6039431011683586e-02 1.7392691259435343e-02  6.2942460047256565e-02 -2.6659109103786896e-02 1.8108702622008723e-02  6.2713482530482298e-02 -2.6035193005681787e-02 1.7525346115818768e-02  6.3557901394514102e-02 -2.6343544743264169e-02 1.7201811771710381e-02  6.3093990192896951e-02 -2.6897876088386057e-02 1.7950624901486949e-02  6.2903008749150849e-02 -2.6292846965775534e-02 1.7323348401213669e-02  6.3715476801669946e-02 -2.6606648976933614e-02 1.6994001487944676e-02  6.3248840004964585e-02 -2.7094074697137455e-02 1.7770107927641377e-02  6.3096042261971061e-02 -2.6513410001918782e-02 1.7101885524407019e-02  6.3876642475951650e-02 -2.6830572246474751e-02 1.6765186638804382e-02  6.3415416148574377e-02 -2.7246424406190371e-02 1.7566061884656752e-02  6.3302769170149500e-02 -2.6696593867271405e-02 1.6856566378310969e-02  6.4051394211352225e-02 -2.7015232261821742e-02 1.6511532988184332e-02  6.2599701202508129e-02 -2.6562752587151982e-02 1.9454359092496373e-02  6.2244354793871311e-02 -2.6485543160259136e-02 1.9613154295259515e-02  6.2160399130725796e-02 -2.6668493600950430e-02 1.9947768252598051e-02  6.2583868227464326e-02 -2.6858510124070509e-02 1.9687310155099634e-02  6.2075980771307063e-02 -2.6797222702220316e-02 2.0191746023294189e-02  6.2560025636830066e-02 -2.7080901406362042e-02 1.9848933753881345e-02  6.1990741148195028e-02 -2.6881757043561355e-02 2.0366017697969026e-02  6.2532106973544624e-02 -2.7248717096064714e-02 1.9950606359517467e-02  6.1906646036491729e-02 -2.6931384395256334e-02 2.0481867062995346e-02  6.2502251689451227e-02 -2.7375744669837505e-02 2.0002090108394904e-02  6.1825664952309248e-02 -2.6954159148366397e-02 2.0547643197196444e-02  6.2472605300845363e-02 -2.7469348692218388e-02 2.0008860959486313e-02  6.1751442734393688e-02 -2.6955375512651713e-02 2.0569513324902089e-02  6.2446216771050271e-02 -2.7534841234258936e-02 1.9974073424037463e-02  5.8663428799875177e-02 -2.4460602058888233e-02 1.9953969489227057e-02  5.9408711694543807e-02 -2.5053711446419897e-02 2.0211908920695434e-02  5.8950280771991818e-02 -2.4773343009727677e-02 2.0043711546963102e-02  5.9577127262404057e-02 -2.5314700250748733e-02 2.0452254560674257e-02  5.9199521845018463e-02 -2.5019913615342709e-02 2.0105834642074209e-02  5.9712106986100640e-02 -2.5493835997022547e-02 2.0627625460795190e-02  5.9431384142406153e-02 -2.5214580125703680e-02 2.0136403682131022e-02  5.9836268748897706e-02 -2.5618063792236058e-02 2.0748680822257684e-02  5.9661362530278414e-02 -2.5366684141695291e-02 2.0136284223756736e-02  5.9961750657397457e-02 -2.5702184059604137e-02 2.0823462545392468e-02  5.9902105502553774e-02 -2.5482890730637968e-02 2.0109398663059039e-02  6.0097017060756153e-02 -2.5755067698625362e-02 2.0856467526922745e-02  6.0163979404158623e-02 -2.5569776716169074e-02 2.0058287970968640e-02  6.0249415301629833e-02 -2.5782564407699458e-02 2.0852573098792158e-02  6.8472881647728884e-02 -2.6121008999679257e-02 1.5879557863171960e-02  6.8349534867664763e-02 -2.6501914218313528e-02 1.5800733153823823e-02  6.8236170933183765e-02 -2.6840272062724751e-02 1.5704594328366486e-02  6.8082023902085440e-02 -2.6803113865178998e-02 1.4937106393867149e-02  6.8126932147015568e-02 -2.7139733226490360e-02 1.5588472565187238e-02  6.7117373331363250e-02 -2.7489967747087018e-02 1.5809045703367986e-02  6.8015421169785192e-02 -2.7404118108233913e-02 1.5452051026538932e-02  6.7895912272854297e-02 -2.7636091027561767e-02 1.5295084707150875e-02  6.7762539299345240e-02 -2.7837446823524844e-02 1.5118123270080440e-02  6.6196376714353980e-02 -2.6893886096401573e-02 1.7991683500898931e-02  6.5708875126560734e-02 -2.6954173872881747e-02 1.8188782549225607e-02  6.5252062333505181e-02 -2.7008454030470658e-02 1.8453290598693321e-02  6.5026962806