<?xml version="1.0"?>
<VTKFile type="UnstructuredGrid"  version="0.1"  >
<UnstructuredGrid>
<Piece  NumberOfPoints="1015" NumberOfCells="4310">
<Points>
<DataArray  type="Float64"  NumberOfComponents="3"  format="ascii">10.89120664377067 4.113844853993423 0.9923997686974888  10.83845635050178 4.008594166425236 0.9226943936388814  10.77217775176884 4.138345705857528 1.018016856440448  10.76454197213542 4.189073856773939 0.9584616360840722  10.83303960429854 4.049856156087908 0.8552060096616328  10.88265015856132 4.162002603761521 0.9285440981659938  10.75728687263333 4.239697259625288 0.8992439783850347  10.82796489394984 4.091110124504421 0.7880594416845789  10.87451462896663 4.210035839606575 0.8650987932544891  10.75031672766627 4.290121856844523 0.8403215102117338  10.82316189180318 4.132228712982715 0.7212736971349542  10.86667326837487 4.257844462271557 0.8020074874004868  10.7435116626241 4.340290995770124 0.7817006090095578  10.81845662736617 4.173158909723794 0.6548114739225905  10.85897885375239 4.305326735838661 0.7392715409271126  10.73667892496839 4.390190692406029 0.723426970722528  10.81376986975677 4.213961249338126 0.5887133585205394  10.85130076874424 4.352547234629028 0.6769220289782582  10.72941745948475 4.439670574299743 0.6654833615019531  10.80878383757522 4.254413224076732 0.5230271564568912  10.84330174393554 4.399315306573809 0.6149813071581555  10.68652832565394 4.22007898589764 0.7054765933464763  10.68049746354168 4.264032223140249 0.6433484553912823  10.67404998811983 4.307649294158229 0.5813909103865424  10.84916142554143 4.422053292325817 1.402302267709014  10.75447552904147 4.396100788972966 1.373131182817375  10.79872559919848 4.441298505133911 1.491013114851897  10.7894549427823 4.513589294552555 1.469669276688572  10.7439161592801 4.465369403680489 1.342800515687846  10.83979349678078 4.494622045867589 1.375745657231893  10.83084428228455 4.566662670599815 1.349390544683882  10.7338542523298 4.534195308973715 1.31269414520654  10.78056066689236 4.585255019718652 1.448550231672677  10.82216070114378 4.63810770041579 1.323177686052635  10.72409688457415 4.60252986420167 1.282725547618957  10.77190692074237 4.656373846416198 1.427571961179853  10.81361830126413 4.708959023449986 1.296987612430951  10.71450895152331 4.670348072871075 1.252800600829284  10.76341063273724 4.726935440462664 1.406613093010523  10.80500849755812 4.779186350863694 1.270800392621534  10.70482010787026 4.737612858432707 1.222906604294286  10.75482200784246 4.796916987582335 1.38561025956432  10.79587943177943 4.848743945994398 1.24467920315663  10.694688007029 4.804301513215048 1.193152904106514  10.74578703424209 4.866215293373743 1.364580607743804  11.47791584296261 4.003118700952301 0.8740228665872284  11.3722953398243 3.978465775270532 0.8699036629768907  11.37904136788859 4.10683860381133 0.9334117247911181  11.37528628875238 4.1526720132861 0.8511586933871362  11.36953123108349 4.011491726594715 0.7837764445868729  11.47260903825902 4.037897842418194 0.7845558416407734  11.46754606756564 4.071995802329653 0.6960328619634885  11.36708257804611 4.044201341101598 0.6984494249086883  11.37174001515175 4.197874731306763 0.7700998364433718  11.4628375154502 4.105473724357366 0.6086859963547535  11.36509354808274 4.076569994247358 0.6140126828547827  11.36854393281642 4.242507034008684 0.6900559006578212  11.45859200985625 4.138690408075821 0.5225211164339574  11.36357280856607 4.10878997325571 0.5305882183890522  11.36574338920296 4.286447716274522 0.6108390209834644  11.36254128186764 4.140948430538304 0.4481108490533293  11.45465764620497 4.171647837808933 0.4374537392430664  11.36343355645199 4.329796211915153 0.5324200805450588  11.36221968321029 4.172896939013537 0.3665379490851193  11.45170814456725 4.204446461136603 0.3533284276933442  11.36174406169745 4.372577176800116 0.4551297104024916  11.1739757583279 4.086802749370673 0.9249134099423838  11.05667738104307 4.058779302425082 0.923279602259885  11.05364143595518 4.173479822643415 1.01310531172084  11.04413388008827 4.226427580768625 0.9478924742150583  11.04822122569639 4.101530002990765 0.8512347724112865  11.16634063633356 4.131224115309663 0.8498921153366548  11.0351199501697 4.279049642606948 0.8832472981298574  11.04026160885514 4.144142461585882 0.7797091384021069  11.1591503828668 4.175378608405638 0.7755265095447773  11.02652093822623 4.331180811166938 0.8190931040913649  11.03258871771954 4.186447410883351 0.7086803100913401  11.15223311926288 4.219102845119864 0.7017749618710556  11.01807722308651 4.382829123241505 0.7553414493087025  11.02498924749939 4.228381641714325 0.6381342031761941  11.14543508448536 4.262375638668021 0.628586884482994  11.00969515330966 4.433998866334234 0.6919968842291558  11.01742817560256 4.269966029996302 0.5680832384103125  11.13873585867922 4.305150927533568 0.5560048097265864  11.00111550818995 4.484745315185254 0.6291329230852437  11.00979786067929 4.311194766490378 0.4985646163938792  11.13208753746154 4.347487935066356 0.4841472698035937  10.69079942131187 4.433773957274989 1.507042218396244  10.68139360864624 4.504132720688013 1.486242335385288  10.67231745376 4.574006876367472 1.46566435854913  10.66355062373286 4.643379184194904 1.445187757534025  10.6549676191103 4.71226990051396 1.424709991271189  10.6462760249336 4.780651986576729 1.404197254999224  10.63711525780883 4.848499963037534 1.383680845771175  11.28244408013254 4.072668651570045 0.9121103533006284  11.28005277300833 4.113268819575355 0.8310435269247942  11.27785796018345 4.153501268760531 0.7508962357239995  11.27605948433504 4.19334959358532 0.6715336030618015  11.27460014291914 4.232791918291049 0.5929484200368806  11.27356709571348 4.271832234587762 0.5150849193808094  11.2728129842821 4.310514011722198 0.438078819065827  11.27721906570756 4.184638783808762 0.9820824976447833  11.17033155184356 4.189892376151532 1.008577236115099  11.15775682280691 4.244570968988793 0.9407154114983027  11.27101772882739 4.237592122607333 0.9078420797191689  11.14594921821055 4.298715050024126 0.8737157190667207  11.26521741559537 4.289996097780232 0.8345800516839543  11.13445591108228 4.352223478904199 0.8072566422099561  11.25984941644975 4.341687075594322 0.7620040856351173  11.2547268331773 4.392625665186967 0.6899288894723863  11.12305067812137 4.405049370779831 0.7413464193934655  11.2497472200575 4.442719884813129 0.6183508178239663  11.11160410596701 4.457201666467034 0.6758393515782649  11.24495113212394 4.492335028651569 0.5474140401419217  11.10015790007011 4.508770740955078 0.6110375804977806  10.73254841932159 4.203526442396145 1.097004067805446  10.57713041732082 4.203586235022156 1.123850035479796  10.69279138501317 4.275925435914411 1.183273728647052  10.68174135928759 4.337147131989481 1.138273467676821  10.56630673860981 4.26067138454108 1.075565086433737  10.72239847099598 4.259947159881982 1.044719670895101  10.67118523305495 4.398139192094488 1.09355352040499  10.55591556404261 4.317626947904211 1.027534400545151  10.71271299855997 4.316184566024127 0.9927345834675934  10.66094661499174 4.458807336396791 1.049033980314529  10.54577715345657 4.37438530889809 0.9796934195681296  10.70333943246306 4.37216355463818 0.9410158263852878  10.6508387442194 4.519100817505812 1.004678308283305  10.53574146191599 4.430926633926262 0.9320137825115704  10.69411674695456 4.427830170987884 0.8895421747512195  10.64065103564234 4.579027534297078 0.960520216687633  10.52563065339685 4.487216660249923 0.8844881880848765  10.68486330993299 4.483198306165804 0.8383291788630945  10.6300383533633 4.638532337432886 0.9165672846349172  10.51515298806631 4.543126518358564 0.8370977105867931  10.67519628863051 4.538120363994598 0.7873801961968921  11.463981502974 3.316609612104434 0.8195454816880586  11.34686505564315 3.311228099759348 0.810327781299185  11.34773837954865 3.432646528384613 0.796512096972129  11.35384799780356 3.428439110420911 0.7135149389092847  11.35354052891953 3.300191583855344 0.7301022639155678  11.47060339880916 3.304840898242374 0.736836302739368  11.3597479716618 3.42424198588288 0.6308268534389486  11.3599016762085 3.28933948783983 0.6500602584781214  11.47684426570543 3.292912212535971 0.6542439746791174  11.36543240925791 3.42018892147241 0.5483693935852272  11.36594845692681 3.278626691637834 0.5701417567325884  11.48278854502053 3.280932023739475 0.5717283273578303  11.37096055499209 3.416297999148043 0.4661123499054883  11.37175230389365 3.268034292961284 0.4903221972108031  11.48852505569578 3.26900425678671 0.4893260992446887  11.37632245370277 3.412592996237792 0.3840998038673847  11.3773055518566 3.257525123615073 0.410543490887964  11.49391682980897 3.257169976802157 0.4070602598347608  11.38150643573359 3.409070114346916 0.3023982328368185  11.38266633712927 3.247037740857627 0.3308133156076015  11.49919760609758 3.24578251187429 0.3248515312828505  11.59346506746749 3.886564994141732 0.8316435435560761  11.47800920044026 3.880605414431695 0.8407426721807149  11.47551110791438 3.902915835739474 0.7489216671901819  11.58872363384573 3.907093789181672 0.7352836825319318  11.47298037034272 3.92455657431624 0.6580329486702673  11.583861645083 3.925943550720591 0.6398699561132021  11.47085858016383 3.945809481909273 0.5680483870937851  11.57930977189483 3.944164178172117 0.5455270139139168  11.46941730443678 3.967192169713055 0.4790681387244151  11.57536487445918 3.962621288943062 0.4521370065010414  11.46816701999639 3.98864354743655 0.3910301606285965  11.57138428746894 3.981286687621159 0.3595305833120773  11.46694538201392 4.01077559125528 0.3037729300506535  11.5670350452902 4.002045550912146 0.2679153251834334  10.64202749920212 4.23914216138953 0.9269156823399169  10.63402060507073 4.291521541710414 0.8721721304237892  10.62614119656561 4.343722761159435 0.8176631016363625  10.6181948201267 4.395701927513326 0.7633823182640216  10.60986300277803 4.44729280978727 0.7092459879010546  10.97578828881896 4.106923400313
[...]
<PointData  Vectors="f_16"> 
<DataArray  type="Float64"  Name="f_16"  NumberOfComponents="3" format="ascii">2.7225715881711516e-03 1.5722797798858612e-03 -2.9639684283300841e-03  3.1577947826031518e-03 1.6173918278878292e-03 -3.3960357873078035e-03  3.5296079213622380e-03 1.8811971198912608e-03 -3.3875321254877391e-03  3.7016125457046242e-03 2.2156357241424379e-03 -3.6416070512885123e-03  3.4112142225208647e-03 1.8740142151311473e-03 -3.7203900971698417e-03  2.9657208620492057e-03 1.8812652623584633e-03 -3.2478858316807462e-03  3.8104149212340723e-03 2.4922498263302379e-03 -3.8390138372992023e-03  3.5901847720932753e-03 2.0856546606199053e-03 -3.9944854856808739e-03  3.1418385465670348e-03 2.1453874314167655e-03 -3.4872857039534564e-03  3.8877201032592435e-03 2.7307101954455485e-03 -3.9981698948657893e-03  3.7280763276034252e-03 2.2630596652597271e-03 -4.2220044324685485e-03  3.2744639715252865e-03 2.3737668518870767e-03 -3.6864779311077179e-03  3.9695998422204148e-03 2.9384555390440368e-03 -4.1296794607698422e-03  3.8453897369270409e-03 2.4189005308912640e-03 -4.4120316817907413e-03  3.4035275942889058e-03 2.5739366384375118e-03 -3.8608294094991486e-03  4.0718717976960736e-03 3.1258470315055726e-03 -4.2379426935639708e-03  3.9756335486712414e-03 2.5591125683538398e-03 -4.5798408974290017e-03  3.5447913127852637e-03 2.7527227168308837e-03 -4.0162323206626186e-03  4.2046753257759294e-03 3.3084270091457086e-03 -4.3189272928161370e-03  4.1325816959672072e-03 2.6990984783433350e-03 -4.7459096449787115e-03  3.6956349597654556e-03 2.9215582773437086e-03 -4.1705445930897865e-03  4.5002338184842727e-03 2.8306270732635624e-03 -4.7359720029714709e-03  4.5954577418943600e-03 2.9914807353839347e-03 -4.8674000265898536e-03  4.7295697978368967e-03 3.1451314166249075e-03 -4.9749350659538264e-03  2.7691554854536973e-03 1.5207520271972330e-03 -2.0089594743853498e-03  3.4534270125603076e-03 1.7564481039321113e-03 -2.3449678811002946e-03  3.1031583753548544e-03 1.4803628242884568e-03 -1.9134208387387385e-03  3.1610194526672975e-03 1.8627750945953837e-03 -1.8694467427300852e-03  3.5028373147049153e-03 2.1540926557767539e-03 -2.3597890988442689e-03  2.8727489036075005e-03 1.9048188999564834e-03 -2.0033504022724108e-03  2.9580429027275634e-03 2.2189851396909543e-03 -1.9920449531952568e-03  3.5365920247828432e-03 2.4820141403946502e-03 -2.3505362929864982e-03  3.2048688081144461e-03 2.1778056093145733e-03 -1.8218671104870898e-03  3.0359305275592793e-03 2.4792300939418524e-03 -1.9633685363217700e-03  3.5645548898530269e-03 2.7548177545331041e-03 -2.3133603737197812e-03  3.2381973657867784e-03 2.4333220074877933e-03 -1.7551092164846253e-03  3.1112961314170560e-03 2.6951483047062351e-03 -1.9119073427291907e-03  3.5922660573585920e-03 2.9820290272447227e-03 -2.2480994341216522e-03  3.2663145253756230e-03 2.6391131960783912e-03 -1.6665194032667793e-03  3.1873082923961930e-03 2.8754374676345858e-03 -1.8368648769728315e-03  3.6221754969251057e-03 3.1699492511195518e-03 -2.1570808740046430e-03  3.2936769650992190e-03 2.8039967904321967e-03 -1.5580446161248586e-03  3.2648580425058229e-03 3.0240815946811768e-03 -1.7375693502068778e-03  3.6557593328892524e-03 3.3233479426403806e-03 -2.0511312228360030e-03  3.3270649692615393e-03 2.9362229730012061e-03 -1.4361990814773758e-03  1.5445657161600133e-04 2.0577830988988344e-04 -2.2610415577243011e-04  3.7306914871263809e-04 4.1716169612166041e-04 -7.0677352288858796e-04  3.1270551304222750e-04 3.7094103990022392e-04 -6.8075433731460799e-04  6.5731917067380046e-04 5.2658680971609008e-04 -9.3170720889114368e-04  7.2958240471377432e-04 5.1200980004724515e-04 -9.7232507034031486e-04  4.1083620148828177e-04 2.8783410883162865e-04 -4.4972955114433525e-04  5.3423510881578178e-04 3.9456165166658119e-04 -7.2602426616798341e-04  9.2334242428426295e-04 6.2885616715204038e-04 -1.2568548758268773e-03  8.0964205204438970e-04 6.8811868059960102e-04 -1.1997477411418787e-03  6.2911916510105981e-04 5.0260656213826351e-04 -1.0433920523089820e-03  1.0582813391495764e-03 7.4777977883320784e-04 -1.5630678093696358e-03  9.3438787725559982e-04 8.3663446868122214e-04 -1.4957914532574019e-03  7.4231696577631442e-04 6.1981396098341923e-04 -1.3911244774141649e-03  1.1933936963069544e-03 8.6651555227913518e-04 -1.8846125550251527e-03  1.0745058782297115e-03 9.8876242065117255e-04 -1.8016538052483084e-03  1.3555777403569825e-03 9.8199809271323746e-04 -2.2120631129635394e-03  9.0567260843874421e-04 7.4786878941286532e-04 -1.7572023587087580e-03  1.2508225124548925e-03 1.1442236734832527e-03 -2.0998745697684033e-03  1.5375245115038551e-03 1.0792496308008924e-03 -2.5304157004375142e-03  1.1210660007606582e-03 8.5941950977007104e-04 -2.1076435282669382e-03  1.4646582016948542e-03 1.3074816135348292e-03 -2.4002296308884333e-03  1.1676455831733613e-03 9.0209407277621397e-04 -1.7660388586467103e-03  1.7962302044058850e-03 1.1826003801772300e-03 -2.3645616455018705e-03  1.7285353758289992e-03 1.1999001154018695e-03 -2.1917485170476229e-03  2.0087703700530125e-03 1.5069664069951581e-03 -2.4606294214860225e-03  2.1112535866851623e-03 1.4247819711161200e-03 -2.6939486735682739e-03  1.5151614761884497e-03 1.1286221549199706e-03 -2.0829380840408722e-03  2.2050229421448834e-03 1.7733112824252421e-03 -2.6948933058457761e-03  2.3512424954217868e-03 1.6337892475938971e-03 -2.9742494224117475e-03  1.7485277962652984e-03 1.3301500689628894e-03 -2.3625583044951702e-03  2.3743788387016775e-03 2.0047984105634213e-03 -2.9061636953489700e-03  2.5386980984758653e-03 1.8224702501689913e-03 -3.2271582637242390e-03  1.9283096540312257e-03 1.5193067096733871e-03 -2.6310474302356467e-03  2.5433833461621404e-03 2.2114679404172787e-03 -3.1032087772805512e-03  2.7094485813559947e-03 1.9952927845522514e-03 -3.4630346436405539e-03  2.1051774923831943e-03 1.6978247394889058e-03 -2.8939294366118491e-03  2.7096467009518426e-03 2.4040032722099647e-03 -3.2828232493906551e-03  2.8835946114435149e-03 2.1553692405971944e-03 -3.6858988188964289e-03  2.2894026932677902e-03 1.8685037028290661e-03 -3.1425005111006751e-03  2.8751269743297579e-03 2.5875188139226940e-03 -3.4495256215779043e-03  3.0627451165711377e-03 2.2996542283117119e-03 -3.8983399159530680e-03  2.4870915986788789e-03 2.0220311168563819e-03 -3.3652556726422272e-03  3.9107965493037824e-03 1.6180226084575198e-03 -2.1216823871522982e-03  3.8936004897795369e-03 2.0123520310577486e-03 -2.0609009822811853e-03  3.8551759060953985e-03 2.3289105442557824e-03 -1.9806606010081673e-03  3.8073040703655273e-03 2.5823602298174330e-03 -1.8735132482361971e-03  3.7565481332946485e-03 2.7834692221645084e-03 -1.7438780539010719e-03  3.7065273104629395e-03 2.9399345876304039e-03 -1.5987686799450555e-03  3.6796661729995173e-03 3.0575942395579640e-03 -1.4494723537589213e-03  6.6923605221718091e-04 6.2003162401313224e-04 -1.1889924669768244e-03  1.0363292385646183e-03 7.9042992750294277e-04 -1.4773536076023561e-03  1.2346421700319030e-03 9.5404007810899797e-04 -1.7447928809201563e-03  1.3805938352269630e-03 1.1089896072689306e-03 -2.0214430462246217e-03  1.5309732386015282e-03 1.2568287395871513e-03 -2.3014776352756573e-03  1.7012148912684526e-03 1.4013988318453741e-03 -2.5744388954272619e-03  1.9154579473744217e-03 1.5318467216786605e-03 -2.8314990271982375e-03  6.8450730918595895e-04 6.1591233445590495e-04 -1.1760542411622954e-03  1.1446661079520747e-03 8.8484697056369192e-04 -1.6562230345266078e-03  1.4510414605493844e-03 1.1817661800942610e-03 -1.9378682175737766e-03  1.0049657417696683e-03 8.5150764172651962e-04 -1.4420712209425204e-03  1.6700233107621578e-03 1.4396757244941271e-03 -2.1986416548017253e-03  1.1875928595089385e-03 1.0597496718069777e-03 -1.6980296056341140e-03  1.8707499514957814e-03 1.6701657533011438e-03 -2.4522305345630810e-03  1.3517600234322197e-03 1.2500501459830153e-03 -1.9686370695514168e-03  1.5177015711373655e-03 1.4417594835466588e-03 -2.2368359028925259e-03  2.0658572174255402e-03 1.8903310680933045e-03 -2.6914531078587557e-03  1.6997428775611504e-03 1.6382892646389503e-03 -2.4869230166542850e-03  2.2576991360364783e-03 2.1029247604250696e-03 -2.9094774146129522e-03  1.9077605496974339e-03 1.8317352645971564e-03 -2.7043446109026514e-03  2.4398554702459098e-03 2.2963718347446976e-03 -3.1096485757939286e-03  3.7738757480865483e-03 1.9502750000283593e-03 -3.2783454652920404e-03  4.9716881376361682e-03 2.1758429800140741e-03 -3.6887950813296057e-03  4.0275142136460022e-03 2.0317932121068413e-03 -3.1252334658279190e-03  4.0704745371190985e-03 2.4265192543842357e-03 -3.2530822144390642e-03  4.9763902958020467e-03 2.5747314638211610e-03 -3.8446912711937661e-03  3.8858743123105352e-03 2.3252748949637871e-03 -3.4738607137433973e-03  4.0908447087367010e-03 2.7611476312566227e-03 -3.3349597953851616e-03  4.9590728124809923e-03 2.9051128174009933e-03 -3.9548866360184275e-03  3.9539828040417750e-03 2.6441133876527597e-03 -3.6244053372385086e-03  4.1141364166106141e-03 3.0485387002307358e-03 -3.3829868511169488e-03  4.9376139871175617e-03 3.1902160183139810e-03 -4.0244413297030818e-03  4.0058930074246867e-03 2.9179620182706823e-03 -3.7375333679252132e-03  4.1451447761870000e-03 3.2962500500341796e-03 -3.3991669039612400e-03  4.9247733998344966e-03 3.4383582932834148e-03 -4.0590721552954557e-03  4.0672872220662319e-03 3.1551453794284251e-03 -3.8200445213355761e-03  4.1863057728435942e-03 3.5105388245559883e-03 -3.3851378204024589e-03  4.9260902558059998e-03 3.6537231934206326e-03 -4.0616053013024685e-03  4.1434550144734891e-03 3.3642351715010158e-03 -3.8735923174623883e-03  4.2400895378220524e-03 3.6981856651232227e-03 -3.3411005377417635e-03  4.9481586085646408e-03 3.8437392196112017e-03 -4.0352739245438874e-03  4.2373838476142366e-03 3.5540501656226510e-03 -3.9016358729038504e-03  2.5501098297778057e-04 2.4606350842887206e-04 -2.9955308240790308e-05  5.5817056901550179e-04 3.3171024247349585e-04 -5.9623420141171344e-04  5.1422444750550745e-04 3.4943024628466884e-04 -6.5988592440729954e-04  8.8790379483660864e-04 3.0336098797744537e-04 -8.6231244195816587e-04  9.2044522164681189e-04 2.5725741112332830e-04 -7.9338230523189534e-04  4.7224425305542706e-04 2.1184827998956058e-04 -1.8799553117092340e-04  1.1191602635391925e-03 2.4644858260122163e-04 -1.1258066057009658e-03  1.1459622468049768e-03 1.7145424032852249e-04 -1.0504110222328612e-03  5.9411574863677669e-04 1.4926180065020234e-04 -4.2656521746058980e-04  1.2907707379712424e-03 1.8183146323231557e-04 -1.4295136389293375e-03  1.3131343216961056e-03 7.2516244511652673e-05 -1.3465687213232898e-03  6.8569043684239914e-04 7.0623798048023259e-05 -7.1063190699087073e-04  1.4613242952018425e-03 1.1111008292962303e-04 -1.7589515272495660e-03  1.4812625420067959e-03 -3.3117040349030203e-05 -1.6673329063300517e-03  7.9000724013908561e-04 -2.0471797255505860e-05 -1.0298666522801649e-03  1.6684993683069012e-03 3.7169909519202231e-05 -2.1112932455572887e-03  1.6919450422399048e-03 -1.4139266705777683e-04 -2.0087740477586703e-03  9.4549870672314357e-04 -1.2361046647492460e-04 -1.3882970320666533e-03  1.9221683510531197e-03 -3.7692744822638784e-05 -2.4786616404908336e-03  1.9508086650742626e-03 -2.5315088075288989e-04 -2.3676321436472340e-03  1.1758427302156391e-03 -2.3745790920475939e-04 -1.7884948775038711e-03  5.9071315821281281e-05 6.1732371672300248e-05 1.2967232979010874e-04  1.3920262938991050e-04 2.1794513915976039e-04 -1.8474045643274899e-04  4.0611553723752332e-04 2.5911886856336990e-04 -3.8555748539257712e-04  1.3665060381061957e-04 8.6871788773384298e-05 -6.7047745062502468e-06  5.3903293527399752e-04 3.2841419761521376e-04 -6.5998862282845344e-04  1.8584589121139298e-04 1.3654996742755972e-04 -2.1858910110717243e-04  6.3298027093667631e-04 4.0376409368975450e-04 -9.7373385476136136e-04  2.2865994521382291e-04 1.8858787693164353e-04 -4.6069091146793448e-04  7.3491691236362124e-04 4.7914670501347415e-04 -1.3154645514494463e-03  2.8562143152469473e-04 2.4081140956237233e-04 -7.3795535069361520e-04  8.7863416369555753e-04 5.5439460616785012e-04 -1.6854929445612099e-03  3.8690125699887247e-04 3.0012583596952900e-04 -1.0818625049799527e-03  1.0604151076924356e-03 6.2132280804189479e-04 -2.0780546233443355e-03  6.6172262751661810e-04 3.5276703803934227e-04 -1.5535007937758321e-03  4.5305413367827769e-03 2.7220542415411957e-03 -4.1506387580908825e-03  4.5628205315115739e-03 2.9735445065474718e-03 -4.2861472540473202e-03  4.5965611862249000e-03 3.1936492727676802e-03 -4.3858316442429244e-03  4.6501913233719227e-03 3.3884869933854512e-03 -4.4547582275068420e-03  4.7306829028724053e-03 3.5680369577424948e-03 -4.4951760173758291e-03  2.2283140685650667e-03 1.3802631528773859e-03 -2.6458393104230775e-03  2.4958127087149483e-03 1.6772142163073611e-03 -2.9434552503789448e-03  2.7053178915381138e-03 1.9308591594413226e-03 -3.1988853363948784e-03  2.8701660993661038e-03 2.1546561792778257e-03 -3.4197357317610039e-03  3.0293335493329350e-03 2.3536804905362513e-03 -3.6198722589675736e-03  3.1925954871397069e-03 2.5360442996140908e-03 -3.8052909914828756e-03  3.3555928130651878e-03 2.7035849843357624e-03 -3.9701619508426787e-03  9.6598467846093156e-04 4.2725154743407926e-04 -1.3408451482405936e-03  1.4191399902049840e-03 3.7290754707363922e-04 -1.5866678222108204e-03  1.7176760769624887e-03 3.0415516998096682e-04 -1.8572669802338466e-03  1.9346724408567837e-03 2.2820969694969180e-04 -2.1412422549381559e-03  2.1343864522444839e-03 1.5049064610153979e-04 -2.4294080463653526e-03  2.3636668696931261e-03 7.6290822926544755e-05 -2.7219151584898203e-03  2.6486411358126387e-03 5.7595740903909918e-06 -3.0512710586409935e-03  1.9550735641540085e-03 1.0315344306511722e-03 -2.6151714527504260e-03  2.5407041204968100e-03 1.3169567250323089e-03 -3.0554435900703256e-03  1.8554965414553164e-03 1.1191408154241265e-03 -2.4881900633632581e-03  2.2205819847920553e-03 1.2971942398595322e-03 -2.8422802314000376e-03  2.8718529047060508e-03 1.5088778484243801e-03 -3.4167886188286416e-03  2.3513659122223521e-03 1.1633943523812265e-03 -2.9739027849782522e-03  2.4882489567312795e-03 1.4530705234193247e-03 -3.1456324657755759e-03  3.1185841634909168e-03 1.6652990289701944e-03 -3.7277234144563677e-03  2.6362951722145134e-03 1.2692631577889467e-03 -3.2882958645547335e-03  2.6995579348969936e-03 1.5899811231199481e-03 -3.4187073991696231e-03  3.3141315774957640e-03 1.7965295083883376e-03 -3.9962729876163016e-03  2.8573061466163944e-03 1.3588700050515669e-03 -3.5693143274169400e-03  2.8871110638908574e-03 1.7151148335997008e-03 -3.6704002814040046e-03  3.4893586941465364e-03 1.9121266395941891e-03 -4.2312391558348523e-03  3.0547360002716418e-03 1.4399377528326453e-03 -3.8259674839535812e-03  3.0749767456420209e-03 1.8331825990412841e-03 -3.9053869730434412e-03  3.6673845229489676e-03 2.0194169449920668e-03 -4.4412224107955832e-03  3.2600536991281765e-03 1.5203915437620084e-03 -4.0641625456141230e-03  3.2827750276544798e-03 1.9477762852413050e-03 -4.1272002957042182e-03  3.8652081682391507e-03 2.1296708559077689e-03 -4.6422876502757180e-03  3.4957398266973385e-03 1.6088472670650821e-03 -4.2935108128476333e-03  3.1300701494924189e-03 1.3846050658094745e-03 -3.6651898095634364e-03  3.3777638641414903e-03 1.4867215400040101e-03 -3.9856017955497642e-03  3.5731369609110632e-03 1.5664034555295761e-03 -4.2597291592461079e-03  3.7506569303312853e-03 1.6353041009976104e-03 -4.4977270072668312e-03  3.9401328353073969e-03 1.7034090574489609e-03 -4.7070686056443220e-03  4.1709826931316070e-03 1.7817439802106313e-03 -4.8980482138685716e-03  2.3190297114497409e-03 1.4840793107968868e-03 -2.5831630416315284e-03  2.5523456703048482e-03 1.8164939643575003e-03 -2.8385021138173177e-03  2.7223090172374107e-03 2.1019136249950500e-03 -3.0454382534395538e-03  2.8711247275545271e-03 2.3510640037957501e-03 -3.2275504279306762e-03  3.0235127227698838e-03 2.5687766658012310e-03 -3.3907920739114240e-03  3.1800394341773871e-03 2.7669350923611377e-03 -3.5360046041627347e-03  3.3417312065454987e-03 2.9574823157069918e-03 -3.6615515924586796e-03  0.0000000000000000e+00 0.0000000000000000e+00 0.0000000000000000e+00  4.6448908030063581e-05 -3.3908084160938114e-05 -2.7717488865298024e-05  6.0769474190974227e-05 -5.6860115340083975e-05 -3.7008601868570399e-05  5.0357040054288919e-05 -1.5301636638566939e-05 -6.1986875348302739e-05  6.1538737839691857e-05 2.3640741035858334e-05 -7.4206145988449967e-05  0.0000000000000000e+00 0.0000000000000000e+00 0.0000000000000000e+00  8.2958344147429102e-05 5.8557718485926315e-05 -1.0554455289076748e-04  1.0262111095478925e-04 9.3545170460047471e-05 -1.6067195300247509e-04  0.0000000000000000e+00 0.0000000000000000e+00 0.0000000000000000e+00  1.2086371756868023e-04 1.1995467593477356e-04 -1.9432028962436651e-04  1.4781010730935697e-04 1.4942043863255952e-04 -2.9666261840466797e-04  0.0000000000000000e+00 0.0000000000000000e+00 0.0000000000000000e+00  1.7963912267356249e-04 1.8307402119040203e-04 -3.2329397810111719e-04  2.1283201407575888e-04 2.1545208983184732e-04 -4.8162532529963463e-04  0.0000000000000000e+00 0.0000000000000000e+00 0.0000000000000000e+00  2.9350909938633126e-04 2.9544017610130959e-04 -5.0663856099738256e-04  3.3688995537050346e-04 3.3664136832492025e-04 -7.2925060058216828e-04  0.0000000000000000e+00 0.0000000000000000e+00 0.0000000000000000e+00  5.7694562133537100e-04 5.7581373787020807e-04 -6.9441980540266464e-04  6.4155533374308843e-04 6.3604998793350613e-04 -9.8547526095913709e-04  0.0000000000000000e+00 0.0000000000000000e+00 0.0000000000000000e+00  5.0983458243529182e-03 3.1407034605762476e-03 -4.9163866774329379e-03  5.1426472504712715e-03 3.3101799622896905e-03 -5.0100460239665967e-03  5.2263841406098082e-03 3.4679356864060896e-03 -5.0655181746360163e-03  4.7451076215555280e-05 3.8635804049776011e-05 8.6054755333861470e-05  1.3324053960479281e-04 8.7448740134983514e-05 -4.4315373643567799e-05  1.7116540931097523e-04 1.4722244290916008e-04 -2.3838585147318783e-04  2.0349280382709944e-04 1.9949221537758332e-04 -4.5662760038626921e-04  2.5283500719193512e-04 2.5210554553113310e-04 -7.0526703068812509e-04  3.4123991846887655e-04 3.3804371506107004e-04 -1.0059862748543157e-03  6.4080347008016090e-04 4.9641469072875710e-04 -1.4088164358578780e-03  1.5894214837578569e-04 1.6120967061609558e-04 2.6666191030520552e-04  3.2278594258954517e-04 2.7542386591999831e-04 -4.3759576784657693e-05  5.5474211057968646e-04 2.0728369408128846e-04 -2.0615236736968063e-04  1.9562657067909763e-04 1.5047420763194904e-04 1.4226175372873234e-04  6.8300920137733033e-04 1.1792249887877827e-04 -4.4679170282436065e-04  2.3623553330058211e-04 9.7816879119662226e-05 -5.5072800299399610e-05  7.7886407050264809e-04 1.1058390584976595e-05 -7.3452555739702793e-04  2.7345862926306426e-04 3.1811998963647044e-05 -2.7623074971945777e-04  8.8781664019321857e-04 -1.0643355730064262e-04 -1.0563493942591475e-03  3.2247225224615400e-04 -4.7150509423970002e-05 -5.2427119995640656e-04  1.0473308651104889e-03 -2.3001675598498860e-04 -1.4133186473167885e-03  4.1301753170945674e-04 -1.4234885211871721e-04 -8.2784399148341261e-04  1.2712474948008677e-03 -3.6246724332522406e-04 -1.8010813264273564e-03  6.2082059401712564e-04 -2.5870988757764884e-04 -1.2415475682008982e-03  5.0838951830778183e-03 2.7487963207200607e-03 -1.9883033276003994e-03  4.8044030997585196e-03 2.3666807128982976e-03 -1.4711387862437338e-03  5.7549654617166691e-03 2.0219272881037069e-03 -1.5852832807169771e-03  5.0235223688427999e-03 2.1962430452566683e-03 -1.6912878966228427e-03  5.2701078159396461e-03 2.5396334135508259e-03 -2.1856581891103884e-03  5.4613395955272785e-03 2.1648946089113264e-03 -1.3207963415160539e-03  4.8950226158795051e-03 2.9133282798536678e-03 -1.7844173521272308e-03  4.5863713734365279e-03 2.4919140120734759e-03 -1.2508987790301601e-03  5.1529082240620253e-03 2.2660660267616768e-03 -1.0491952332158710e-03  4.6969373790079309e-03 3.0286382006327775e-03 -1.5706227005137722e-03  4.3681040531717320e-03 2.5692671721490330e-03 -1.0284783422866220e-03  6.12276