<?xml version="1.0"?>
<VTKFile type="UnstructuredGrid"  version="0.1"  >
<UnstructuredGrid>
<Piece  NumberOfPoints="1010" NumberOfCells="4285">
<Points>
<DataArray  type="Float64"  NumberOfComponents="3"  format="ascii">10.48248309297318 2.184887968269668 3.285991548284267  10.39163410013394 2.220848143792308 3.342615390556269  10.40551595589035 2.133802160685357 3.223893315908657  10.40988983807781 2.089676379701861 3.255234144087097  10.3960070941263 2.177849958472393 3.377838090192046  10.48646451330311 2.140761681758718 3.319263675196207  10.41399860871648 2.045514045818498 3.286556704983237  10.40009929414558 2.13482358730456 3.413046109051646  10.49012913986647 2.096581760535316 3.352520894710195  10.41798578509117 2.001297163285727 3.317860528190084  10.4040643347849 2.091746485985573 3.44823108087012  10.49365314869946 2.052323085446162 3.385762674549059  10.42198689348132 1.957034551071707 3.349152008842085  10.40804184608123 2.048621924003262 3.483390913091249  10.49720573536601 2.007993250300787 3.418997537217989  10.42614487154544 1.912748088089549 3.380430560129369  10.41217980640455 2.005473113258669 3.518515757249288  10.50096065793855 1.963618413326412 3.452223073897106  10.43063262212487 1.868461862819047 3.411670750149567  10.41666573530122 1.962342935542526 3.553579490346768  10.50510855817727 1.919224021457545 3.48542820705659  10.12187354662648 2.023451590190072 3.113190321454531  10.05827430135474 2.065515669507915 3.195533959213763  9.980611037662829 2.0162215987653 3.141400803845674  9.988370498409887 1.971759910960195 3.168539980758404  10.06600434456413 2.02162620160527 3.22444541938774  10.12847002615854 1.979161503041123 3.140655171703289  9.996150573798641 1.927347483887534 3.19563058799724  10.07372411283473 1.97778436122914 3.253307849381268  10.1350074970474 1.934904716082493 3.168084471699196  10.00393262875889 1.882970244317182 3.222675341051092  10.08142776017558 1.933970432425944 3.282129519465911  10.14150852426371 1.890664219565491 3.195478261015096  10.01170954163524 1.838623739905114 3.249674221574906  10.08912727574698 1.89017566179102 3.310908440231145  10.14800890287883 1.846436468027522 3.222836565778182  10.01947469687073 1.794315355900225 3.276620720292324  10.09683628027408 1.846405892364079 3.339633910360154  10.15454964740501 1.802233145150412 3.25015094053725  10.02720955815926 1.750050411992349 3.303503850016738  10.10454790911452 1.802681232209535 3.368280747747131  10.16116415395965 1.758093633262549 3.277390632281457  10.05156397523807 1.974597703775644 3.047639077427889  10.05817723658448 1.93007154975189 3.073878461769327  10.06476307388691 1.885585550809186 3.100074846986188  10.07133032850467 1.841123387249235 3.12623191894464  10.07789677466032 1.796681034049244 3.152352657845217  10.08448352076774 1.752265632671572 3.178434630702502  10.09110532318362 1.707900888674237 3.204458572132321  10.29005362659952 2.171633129223085 3.297931852941563  10.29630772305541 2.128432824692815 3.330991719975573  10.3023970177275 2.085242304213464 3.364021057520377  10.30839908603034 2.042035019867256 3.397018204135919  10.31440512060896 1.998808720501484 3.429981089831571  10.32051487523468 1.955580101496978 3.462897614183205  10.3268318611447 1.91238612561696 3.495732793643246  11.33155593571571 2.070839644263712 2.993402167940042  11.22224303185358 2.114152020185915 3.090751061261083  11.21940448951583 2.052695333472356 2.975893347266531  11.22425106551483 2.000510676453912 3.002132166788395  11.22631970241341 2.06194248442402 3.118788202259475  11.33559711021548 2.016638891654183 3.020252026768329  11.22894040954965 1.947935526374516 3.028241294834051  11.23012654914903 2.009229709457522 3.146675267674842  11.33949106227472 1.962103075046309 3.047032018110533  11.2336008888641 1.895047807932354 3.054472578211975  11.23386558914796 1.95616725170696 3.17471903037007  11.34333627081185 1.907238457833293 3.073955501093351  11.23833016217422 1.841908586266658 3.080941388001405  11.23761611257183 1.902835413552647 3.203048788037071  11.34718772828657 1.852051987051006 3.101086868575006  11.24317406632188 1.788536253670801 3.107720811671737  11.24147756750963 1.849216565823527 3.231702897066626  11.35107116972265 1.796541376212857 3.128486181901997  11.24813976393025 1.734925561014929 3.134820909093086  11.24564397281641 1.795236024289796 3.260682937523517  11.35505702478798 1.740675141378991 3.156229495915853  11.44277874797928 2.03399462074796 2.897164462505686  11.32359480668379 2.009678384874403 2.865647881707392  11.3284596140647 1.955374762013474 2.890409713283425  11.44644355165136 1.977598347034693 2.923093502154531  11.45004233035801 1.920910153579024 2.949146741868278  11.33327380447158 1.900719432191449 2.915157974158923  11.45361314995559 1.863897156928836 2.975378259215564  11.33807476279095 1.845776233991189 2.940036215609206  11.45718558761673 1.80653244503112 3.001760061716642  11.34293676064276 1.790545712115755 2.96510004388292  11.46075219459067 1.748755268363927 3.028246273969871  11.34787023221006 1.734990962539615 2.99034919498636  11.46430242131868 1.690496128658092 3.054810816088764  11.35288694964118 1.679107325562754 3.015814612580752  11.10366789174665 2.084564259881246 3.058664776145408  11.1080777300438 2.034056197588573 3.085939848070756  11.11222518537463 1.983035667785511 3.113105011111851  11.11631540384132 1.931749340075282 3.140368580249958  11.12047956527797 1.880250186557183 3.167882528661749  11.12481579406609 1.828534049590928 3.195731952159824  11.12947688655116 1.776452576996753 3.223911361454357  11.57350470265468 1.943016408286947 2.666259490840531  11.45712193818147 1.986029155373641 2.788741243592403  11.44733828030868 1.937924949452849 2.656641637477859  11.45112184283559 1.878900850279563 2.675999567657107  11.46058033197165 1.928526408008179 2.812694114568604  11.57428496790015 1.881440298228463 2.687442864298518  11.45489464597984 1.819718119105997 2.69560182568511  11.46403857671808 1.870817835826621 2.836897758690696  11.57500566121317 1.819789031237706 2.709225911637195  11.4586761148102 1.760289428832978 2.71537559089382  11.46748436558217 1.812849018060358 2.861271711757727  11.57577246483293 1.757878631366511 2.731246145343831  11.46248721492536 1.700555539719359 2.735189361690385  11.47096590442178 1.754562239936903 2.885748617052591  11.57656515396006 1.695611886639345 2.753191955129902  11.46636703544783 1.640468330738438 2.754970432134367  11.4744265680311 1.695870535597669 2.910210991172876  11.57738526895558 1.632940552842043 2.774891067094927  11.47039902316975 1.579950233830844 2.774652761023678  11.47795041104441 1.636670492574776 2.93466861617789  11.57833800617583 1.5697597181973 2.796158821508555  10.30788342190952 2.268925748011227 3.409665976846699  10.31473181991932 2.226816305518667 3.446494146676161  10.32139024627669 2.184723078947434 3.483290546660275  10.3279375562813 2.142605536335975 3.5200514507335  10.33447792518305 2.100456048239583 3.556775058681632  10.34112834172711 2.058294681699173 3.593446341687121  10.34801186885647 2.016160928386595 3.630028453767991  11.57745558880014 1.987519498793481 2.77939741205957  11.5787498926143 1.92793436357324 2.805115844331113  11.58002755907919 1.868223652360794 2.83152521975822  11.58131589533582 1.808172667562006 2.858071400526216  11.58256450036153 1.7477478077652 2.884683976274176  11.58370217426597 1.686852672054041 2.911057395872751  11.58471630518389 1.625519105895488 2.936988985306761  11.57345051676047 1.910544950124337 2.555286092533873  11.45333876126597 1.90408347819092 2.54354766585189  11.45696212759861 1.84355458295834 2.559732368505307  11.57432924053302 1.8478169774835 2.573532918678991  11.46060947555572 1.782945600824648 2.576240071278857  11.57512348732115 1.784992863197954 2.592523315846978  11.46425042663304 1.72211360543115 2.592928335577092  11.575899715695 1.721869068873663 2.611683569836874  11.46791647647273 1.66099008659581 2.609613318046086  11.57669672556446 1.658378381771727 2.63074570642806  11.47160239845877 1.599523918227944 2.626138454606736  11.57751235698482 1.594503945151241 2.649487097596342  11.47548611470441 1.537680740365259 2.642531575374216  11.57832659205105 1.530254504493135 2.667763999842426  11.34192947401831 1.968120906953712 2.769678146533648  11.34701785937075 1.912191768016444 2.791671312346202  11.3520970022923 1.856020443744554 2.813650735711878  11.35718788202567 1.799601103047276 2.835761949123405  11.36235553293395 1.74291865253988 2.858014131985836  11.36760243778398 1.685932926539693 2.880368502583582  11.37292301472613 1.628667201087906 2.902783661883432  9.987577938641103 1.722385719625658 2.494529301737767  9.928989739808978 1.743847332932618 2.590383973794859  9.868762966540569 1.708093938062496 2.494953361660618  9.935599816589511 1.693021303923384 2.605203497954555  9.993022836367262 1.670062497594853 2.507533725106371  9.876263144508554 1.655841797087195 2.506845918700002  9.942132022510023 1.642238712010824 2.620030336753223  9.998321539481406 1.617765609594029 2.520525735666978  9.883726062027138 1.603628867303043 2.51869211690696  9.948618854348483 1.591475184953001 2.634838177096602  10.00355248559587 1.565490855841283 2.533495152939288  9.891143026588438 1.551446951764944 2.530504975637237  9.955091794114617 1.540731778736333 2.64963196237322  10.00877177938712 1.513248580170085 2.546453554644015  9.898549923390467 1.499301765891874 2.542301306027841  9.961588311003366 1.490017215541095 2.664418014462418  10.01403486064783 1.461061492655311 2.559411324239057  9.905987390179849 1.447209927563315 2.55409720378756  9.968164468417951 1.439381561231087 2.679171958832253  10.01945203679638 1.408945418584924 2.572365542167287  9.91345397092762 1.395205801584429 2.565900758577749  11.4468551037209 1.878076971950914 2.436733836508483  11.32408704438032 1.870022900073703 2.455195376334303  11.33567033348203 1.854639108626458 2.330610245704107  11.34147158941792 1.793618448974024 2.33723317971456
[...]
<PointData  Vectors="f_16"> 
<DataArray  type="Float64"  Name="f_16"  NumberOfComponents="3" format="ascii">8.4818027311475436e-03 -4.1513125291490578e-03 5.1272696248898962e-03  9.2246213734820011e-03 -4.5437139815654361e-03 5.8703903489009564e-03  9.2052682717953579e-03 -5.0135765795237715e-03 5.6182695321849779e-03  9.8448099333066572e-03 -5.1117863407607782e-03 5.8616002925320834e-03  9.8822486605578755e-03 -4.6236745669279676e-03 6.0808120500140663e-03  9.0776653396541142e-03 -4.2641015279159897e-03 5.3553395316472008e-03  1.0479458732313741e-02 -5.2620923046701462e-03 6.1087715680670134e-03  1.0536163392194398e-02 -4.7660069690865252e-03 6.3101873518302707e-03  9.6737646626583393e-03 -4.4307997591661579e-03 5.5947499237554016e-03  1.1105667435279914e-02 -5.4527760382164364e-03 6.3641107271123444e-03  1.1182570780323991e-02 -4.9556930453719351e-03 6.5597018768045875e-03  1.0264025714804217e-02 -4.6419031047582899e-03 5.8496759565494659e-03  1.1722607492810126e-02 -5.6759645847185387e-03 6.6350280106775260e-03  1.1819960200797444e-02 -5.1863653120460280e-03 6.8336508186125954e-03  1.0841953900416406e-02 -4.8917393800333936e-03 6.1254599007936686e-03  1.2328276836965246e-02 -5.9280215062688432e-03 6.9315516604381792e-03  1.2445248435547731e-02 -5.4571792057767476e-03 7.1401655046957361e-03  1.1400813747976850e-02 -5.1792063008283618e-03 6.4294664096244082e-03  1.2916845801312467e-02 -6.2128807331675341e-03 7.2672893547211844e-03  1.3048399048458300e-02 -5.7699606932377330e-03 7.4940071013468446e-03  1.1932430537636372e-02 -5.4874341157035616e-03 6.7580933901288907e-03  1.2390190953937235e-02 -8.0472130482283372e-03 7.9481162123678437e-03  1.2881819424512277e-02 -8.2608084634429174e-03 8.7113922329333082e-03  1.3993672591506372e-02 -9.2448123656705197e-03 9.3677962961337159e-03  1.4708417013216003e-02 -9.3381163620689656e-03 9.6012261983419583e-03  1.3624264861482818e-02 -8.3185684524181396e-03 8.9427898091376072e-03  1.3077284501606863e-02 -8.1307364458284414e-03 8.1997319083567423e-03  1.5416956731670562e-02 -9.4592560533553038e-03 9.7995497901940381e-03  1.4351030302066975e-02 -8.4188242329826402e-03 9.1486032290478518e-03  1.3752812174047259e-02 -8.2510715191709914e-03 8.4274292456123223e-03  1.6121173107059246e-02 -9.5979935450634553e-03 9.9843471531074601e-03  1.5069201499288457e-02 -8.5450178065250224e-03 9.3493369445459967e-03  1.4426045067843682e-02 -8.3987303637229529e-03 8.6448260386228735e-03  1.6823724380390873e-02 -9.7411995919810014e-03 1.0170375513921017e-02  1.5785160472154690e-02 -8.6849433381426411e-03 9.5556847755507730e-03  1.5101837096118328e-02 -8.5611497603382079e-03 8.8640470872279262e-03  1.7540362519324695e-02 -9.8837692427757931e-03 1.0363988813112755e-02  1.6517586095824256e-02 -8.8336050754232575e-03 9.7751914059817611e-03  1.5785772285660873e-02 -8.7320953096160208e-03 9.0983974158924449e-03  1.8281992118712516e-02 -1.0014132000257267e-02 1.0574937785094262e-02  1.7271076853722558e-02 -8.9817283134561634e-03 1.0028208493745621e-02  1.6487589482215313e-02 -8.9140987578681854e-03 9.3639132670023974e-03  1.3391107761705785e-02 -8.9643349093632488e-03 8.4830994295754438e-03  1.4052012476031611e-02 -9.0768191317123718e-03 8.7353229630872543e-03  1.4705325597916033e-02 -9.2173003415517481e-03 8.9547370129321111e-03  1.5360186136772622e-02 -9.3762693895980669e-03 9.1551494782983363e-03  1.6021302664768443e-02 -9.5428536417022924e-03 9.3510942022100568e-03  1.6693918396444858e-02 -9.7079075441516109e-03 9.5558114097044240e-03  1.7387490125001719e-02 -9.8685859754444084e-03 9.7846598675736460e-03  1.0193721056536506e-02 -5.5910592360729925e-03 6.6761147484296988e-03  1.0914725066766114e-02 -5.6504536983824332e-03 6.8834279558550853e-03  1.1609706175615124e-02 -5.7640629417485397e-03 7.1021672642751837e-03  1.2289693372247565e-02 -5.9203137405018039e-03 7.3360041796165145e-03  1.2962876475707624e-02 -6.1120331108777907e-03 7.5905207055069904e-03  1.3637969471720707e-02 -6.3363025287809733e-03 7.8734277184615009e-03  1.4326911236384019e-02 -6.5959089744146819e-03 8.1944041040338932e-03  1.3175016202272717e-03 3.4385781617111950e-04 4.2122733070059249e-04  2.0089466615789723e-03 -1.2036534008702448e-04 9.5269809258069146e-04  1.9634954048444158e-03 -2.2989896055668855e-04 8.5086837662405222e-04  2.3906964473394045e-03 -4.4526855860910967e-04 9.9241344554991634e-04  2.4148057556453700e-03 -3.5391984203147890e-04 1.0860181522537691e-03  1.6331134086092732e-03 1.3145324518835922e-04 5.4217408007579124e-04  2.7589815686976113e-03 -7.1517059033627097e-04 1.1612734767653444e-03  2.7634230886097728e-03 -6.3585160637909233e-04 1.2552494907627572e-03  1.8880078036589113e-03 -1.5673169114470493e-04 7.1251072746800030e-04  3.0916809194046391e-03 -1.0338435443321657e-03 1.3522543331010329e-03  3.0787088964745954e-03 -9.6411075349618093e-04 1.4516919324527068e-03  2.1255267391583252e-03 -5.1167204949219671e-04 9.1745117803554075e-04  3.4057518345065236e-03 -1.3970423584806352e-03 1.5604504026557539e-03  3.3755822690403415e-03 -1.3369888690237316e-03 1.6643953693652605e-03  2.3689638299487135e-03 -9.1948455330642795e-04 1.1432339370216573e-03  3.7085730320280705e-03 -1.8041493486696078e-03 1.7818836042042684e-03  3.6583158098824936e-03 -1.7562027157566084e-03 1.8831270177475216e-03  2.6143995787116002e-03 -1.3706789382300210e-03 1.3772928252313902e-03  4.0007982541299366e-03 -2.2685419487057535e-03 2.0185102746143190e-03  3.9219926999047921e-03 -2.2360359597253534e-03 2.1010553701955432e-03  2.8173509119118908e-03 -1.8667848344434540e-03 1.6021311540755571e-03  8.2835561989332690e-04 6.6955781737250441e-04 -9.9541354593764974e-07  1.2947828127613094e-03 2.3625705330185802e-04 3.9136336763535585e-04  1.6405884495261022e-03 3.5047309479308755e-05 5.1581803338607345e-04  9.5652366231979203e-04 4.9090748334518046e-04 1.1493056891070309e-04  1.0485614517800181e-03 1.9839343915563056e-04 2.9035916792679667e-04  1.9188421789081798e-03 -2.4865517436021173e-04 6.7932410402736271e-04  1.1747270351562657e-03 -1.6514853843513038e-04 5.0968030850325342e-04  2.1752100629873834e-03 -5.9862438027539447e-04 8.7353286552722367e-04  1.3450294407987920e-03 -5.8370642631883161e-04 7.5062036942199377e-04  2.4353219522384824e-03 -1.0020959655968930e-03 1.0889598843564264e-03  1.5639435298469987e-03 -1.0497711451189326e-03 1.0012968832047182e-03  2.6964892892428782e-03 -1.4457906252326126e-03 1.3157030253691687e-03  1.7820172202099663e-03 -1.5199508940262729e-03 1.2296957681685948e-03  2.9310739497261651e-03 -1.9278375591815985e-03 1.5532979385599573e-03  2.8663946698910792e-03 -8.2479234410552259e-04 1.4399702245501372e-03  3.3357028317578725e-03 -1.0590169157905145e-03 1.6037358748614389e-03  3.7601746301165980e-03 -1.3251894091092082e-03 1.7863299164825131e-03  4.1517837494701067e-03 -1.6289151609830484e-03 1.9856284816830634e-03  4.5210595867947951e-03 -1.9714710749235672e-03 2.1990878887404074e-03  4.8768430483521431e-03 -2.3567402601692112e-03 2.4242140052088391e-03  5.2305795030637937e-03 -2.7807568283190584e-03 2.6525772255682973e-03  5.4622835857009392e-04 5.1102713017743974e-04 -2.2768623852591755e-04  7.8418532884651064e-04 6.6250123956547306e-04 -4.9258946056471296e-05  7.8693537276202383e-04 6.1551926638349732e-04 1.0731610601180833e-05  8.8980768807865325e-04 4.4733886240689539e-04 1.0795781281617646e-04  8.7189802615235423e-04 5.0612688147624125e-04 6.7242253606923918e-05  3.6894515005696162e-04 3.4239315111694413e-04 -1.0728189442773731e-04  9.7422965153128689e-04 1.5023995594181663e-04 2.6183659840315005e-04  9.3243306055098684e-04 2.0438615351741927e-04 2.4288499699349773e-04  2.7363801787450736e-04 1.6747360357752061e-04 7.7811745368361058e-05  1.0999003883363804e-03 -2.3731986742303802e-04 4.5195890966982929e-04  1.0495393204752806e-03 -1.7374726390249453e-04 4.6121864320609537e-04  3.0726600793401536e-04 -1.2012392443318049e-05 2.1935732495457689e-04  1.2891618360400586e-03 -6.7411209487931723e-04 6.6171649794514640e-04  1.2222965468089795e-03 -6.0032105372640908e-04 6.9735815227261349e-04  3.8151425889224928e-04 -2.3975365425436498e-04 3.7011179634802703e-04  1.5319244518015910e-03 -1.1599200823555293e-03 8.7563002677037397e-04  1.4426494203100034e-03 -1.0883770394176514e-03 9.5430136705207337e-04  5.4973140423674220e-04 -5.2163422807851223e-04 6.1969214441688625e-04  1.7895455585651067e-03 -1.6431813283448913e-03 1.0426414706429066e-03  1.7133954026794444e-03 -1.5422395211469558e-03 1.1709682568596402e-03  9.5878900692536321e-04 -9.5032058547599445e-04 8.7014889926953411e-04  9.8493687279658671e-03 -4.8863349832124030e-03 6.6624149661115668e-03  1.0578610547946198e-02 -4.9264331781218688e-03 6.8302536005231656e-03  1.1279045097384800e-02 -5.0308737296747537e-03 7.0273446975948920e-03  1.1964105155529942e-02 -5.1834954243168514e-03 7.2508472097668961e-03  1.2641413660489606e-02 -5.3777309627809772e-03 7.5026552010484084e-03  1.3317910794674261e-02 -5.6161613458979645e-03 7.7885438105987376e-03  1.4016744077115235e-02 -5.9113974369475941e-03 8.1264072426791602e-03  5.2636691211823761e-04 5.2071513775859028e-04 -2.8567953935417834e-04  3.6331554381905615e-04 3.4463915515276899e-04 -1.6160023886692095e-04  2.5098186586047083e-04 1.6932822030412870e-04 5.2727487041265755e-05  2.7828309195098143e-04 1.0276194216649049e-05 2.0601511542331409e-04  3.4311526710379358e-04 -2.0422167972673140e-04 3.6378154765772991e-04  4.8090831300869410e-04 -4.5387070418294323e-04 6.1618294491518674e-04  9.0368800448453951e-04 -8.9189760062467641e-04 9.6057560035981847e-04  5.3430889166053951e-04 5.1951963708129838e-04 -1.8342700721150156e-04  7.4879873228313903e-04 5.8274614410975254e-04 3.4613270068789342e-05  8.4063806401285491e-04 4.1492712416273065e-04 1.1030585109653720e-04  3.7088699061874872e-04 3.4576235815328459e-04 -7.8422801936639275e-05  9.1285665066766892e-04 1.3166742597603670e-04 2.4065560079788463e-04  2.5383330520260464e-04 1.5028033041358997e-04 7.3313821069086250e-05  1.0340073124849181e-03 -2.5350030666644737e-04 3.9883626365936817e-04  3.0237241280833344e-04 -2.2467918255187603e-05 1.9573574614727113e-04  1.2172727351824569e-03 -6.9300134187734095e-04 5.7396233057339810e-04  3.7062398899933647e-04 -2.4759409233858823e-04 3.2593314555851943e-04  1.4896562764777502e-03 -1.1978826088518781e-03 7.5294721604605389e-04  5.4968874004448598e-04 -5.2294164175679524e-04 5.5402664599815471e-04  1.8017343309553995e-03 -1.6922895145762662e-03 9.2060418994940592e-04  9.5096466025734012e-04 -9.4294372637427910e-04 8.2541974860246624e-04  1.1882250107105711e-03 2.6296774139106282e-04 3.1498361307327478e-04  1.5148348148276093e-03 4.8887081318529663e-05 4.3507843354755998e-04  1.7743738534529980e-03 -2.4308491568031374e-04 5.9304645058917162e-04  2.0180170970463505e-03 -6.0609258829020520e-04 7.7997702905688911e-04  2.2749923810385046e-03 -1.0263137677788750e-03 9.8752333557060703e-04  2.5433092137840852e-03 -1.4884413708153021e-03 1.2062308163918679e-03  2.7766537803524719e-03 -1.9743496505020613e-03 1.4280437704524166e-03  1.5971655451723705e-02 -1.0108075432934332e-02 7.7985708236899117e-03  1.6418862013486659e-02 -1.0534036847342720e-02 8.4790951883877662e-03  1.7367244095489651e-02 -1.0499882988529911e-02 8.6663154388651794e-03  1.6740173461008694e-02 -1.0907761593103216e-02 8.5111585110613976e-03  1.6233581867309301e-02 -1.0536700872093199e-02 7.7776586433361793e-03  1.7588007700997745e-02 -1.0920957764092208e-02 8.5703878883426343e-03  1.7100758666917366e-02 -1.1246440007926666e-02 8.5006551494585299e-03  1.6552204866276142e-02 -1.0909376682637665e-02 7.7149971320261456e-03  1.7860470484628077e-02 -1.1292093587950646e-02 8.4373289589119143e-03  1.7500670930738749e-02 -1.1550172559717601e-02 8.4565916323160201e-03  1.6917318196770368e-02 -1.1236853366092654e-02 7.6247856999973971e-03  1.8176762218265849e-02 -1.1621756283547604e-02 8.2844905693690955e-03  1.7936829487423887e-02 -1.1821945773796675e-02 8.3912988990938013e-03  1.7321470034926907e-02 -1.1526929629607177e-02 7.5190779593175402e-03  1.8530758721773340e-02 -1.1913236253658676e-02 8.1170528196156631e-03  1.8392985244443001e-02 -1.2062980936367569e-02 8.3174743697437235e-03  1.7726715329364179e-02 -1.1784722261363709e-02 7.4094761586963806e-03  1.8891650933054661e-02 -1.2172497919633211e-02 7.9450596636881417e-03  1.8838258772680094e-02 -1.2288335848541214e-02 8.2520067849987076e-03  1.8110262044362051e-02 -1.2007601714574713e-02 7.3003976348162665e-03  1.9254209114947449e-02 -1.2412679757703719e-02 7.7749230630753674e-03  7.1912576251669229e-04 5.6536867046561609e-04 6.8969006956136862e-05  1.1648591633374595e-03 -3.2053118876247072e-06 3.6505602685474634e-04  1.0427355994071400e-03 6.1252433310449075e-05 3.0880123360446616e-04  1.4044363795076005e-03 -1.4856057235896456e-04 3.4804028351101001e-04  1.5446547369799193e-03 -2.2886171858832468e-04 4.3288795280045010e-04  1.0852564059384241e-02 -5.9611851606570119e-03 7.5222922750552597e-03  1.1642262868686472e-02 -5.9944705472770882e-03 7.7056551138143265e-03  1.2395517381461659e-02 -6.0817949839627331e-03 7.9014935643179594e-03  1.3128392120741517e-02 -6.2100465039886732e-03 8.1168508849540424e-03  1.3857252459848150e-02 -6.3728699569627900e-03 8.3549938886083985e-03  1.4599173911574670e-02 -6.5678292801384635e-03 8.6235592696058631e-03  1.5371685052088978e-02 -6.7926458165320754e-03 8.9352870912087230e-03  0.0000000000000000e+00 0.0000000000000000e+00 0.0000000000000000e+00  5.1708762176387861e-04 5.0743035126087522e-04 -1.2137398703502171e-04  3.6009975608608996e-04 3.2617362700745412e-04 -5.0184673080145953e-05  0.0000000000000000e+00 0.0000000000000000e+00 0.0000000000000000e+00  0.0000000000000000e+00 0.0000000000000000e+00 0.0000000000000000e+00  2.5684503496652383e-04 1.3271301830856524e-04 8.2070269664220836e-05  0.0000000000000000e+00 0.0000000000000000e+00 0.0000000000000000e+00  3.0758569264710203e-04 -4.2903185010470091e-05 1.7300900501330142e-04  0.0000000000000000e+00 0.0000000000000000e+00 0.0000000000000000e+00  3.7889108705188834e-04 -2.6930628523561353e-04 2.7878227905253129e-04  0.0000000000000000e+00 0.0000000000000000e+00 0.0000000000000000e+00  5.8758078907649195e-04 -5.6454696910123380e-04 4.6149436021814715e-04  0.0000000000000000e+00 0.0000000000000000e+00 0.0000000000000000e+00  1.0280204321007147e-03 -1.0206769478446178e-03 6.4617615276836582e-04  0.0000000000000000e+00 0.0000000000000000e+00 0.0000000000000000e+00  0.0000000000000000e+00 0.0000000000000000e+00 0.0000000000000000e+00  0.0000000000000000e+00 0.0000000000000000e+00 0.0000000000000000e+00  0.0000000000000000e+00 0.0000000000000000e+00 0.0000000000000000e+00  0.0000000000000000e+00 0.0000000000000000e+00 0.0000000000000000e+00  0.0000000000000000e+00 0.0000000000000000e+00 0.0000000000000000e+00  0.0000000000000000e+00 0.0000000000000000e+00 0.0000000000000000e+00  8.4281745426605136e-04 3.7404885554355720e-04 1.3327054180391611e-04  1.8532268351825684e-03 -5.3789785109063250e-04 5.2025706158729157e-04  9.4296659826248691e-04 6.9994485869958762e-05 2.4074556098723315e-04  2.1308438982142936e-03 -9.2217389743017800e-04 6.2331217095916447e-04  1.0653131786416130e-03 -3.2196630125933239e-04 3.6284141287076408e-04  2.4228108254334053e-03 -1.3675839876116298e-03 7.3698248500638809e-04  1.2636791838826484e-03 -7.7565168209700077e-04 4.9320195756406273e-04  2.7359517628508852e-03 -1.8476174014706668e-03 8.5224645808949957e-04  1.1364872055144744e-03 1.1267736131024631e-04 3.3769358692428735e-04  1.4904680077936709e-03 -1.0312902276520751e-04 4.2644089936521537e-04  1.7717299458015663e-03 -4.0680387461689753e-04 5.4130466721814341e-04  2.0288013148539500e-03 -7.8350304715981659e-04 6.7973906104554173e-04  2.3019148936797703e-03 -1.2170541603968511e-03 8.3322498901246972e-04  2.6017134827589000e-03 -1.6902929613157903e-03 9.9137585555466082e-04  2.8795741337665072e-03 -2.1796437672333964e-03 1.1515604322575677e-03  0.0000000000000000e+00 0.0000000000000000e+00 0.0000000000000000e+00  5.6503748730973543e-04 5.5252649957782791e-04 -2.8617140547368625e-04  4.2544508742073964e-04 3.9996339818089459e-04 -1.5981841283302075e-04  0.0000000000000000e+00 0.0000000000000000e+00 0.0000000000000000e+00  3.3840542762193901e-04 2.2719435249869352e-04 4.3251836829733455e-05  0.0000000000000000e+00 0.0000000000000000e+00 0.0000000000000000e+00  3.6423170738122864e-04 2.0385409391745024e-05 2.3277471733354227e-04  0.0000000000000000e+00 0.0000000000000000e+00 0.0000000000000000e+00  4.3330071778228171e-04 -2.2915609720560484e-04 4.0998931450781208e-04  0.0000000000000000e+00 0.0000000000000000e+00 0.0000000000000000e+00  5.8332509507277191e-04 -5.3512476573526631e-04 6.6790865714588387e-04  0.0000000000000000e+00 0.0000000000000000e+00 0.0000000000000000e+00  9.2742305961030522e-04 -9.1969982073278409e-04 9.5792136193499503e-04  0.0000000000000000e+00 0.0000000000000000e+00 0.0000000000000000e+00  1.7766366834593175e-02 -1.1077813677543744e-02 9.3462328023752508e-03  1.8059672962057391e-02 -1.1445823590490348e-02 9.3278391956116060e-03  1.8391836937191215e-02 -1.1778072340103861e-02 9.2580678216888576e-03  1.8761261344878023e-02 -1.2077501702583069e-02 9.1598481025891142e-03  1.9165727561601752e-02 -1.2346132546594498e-02 9.0426570019772647e-03  1.9595773370663285e-02 -1.2583885670422224e-02 8.9187966851489373e-03  2.0048637866215406e-02 -1.2797000626422301e-02 8.7981878110023979e-03  1.7686343916801296e-03 -8.6548333978471762e-04 6.1201246272430396e-04  2.2794025675629197e-03 -1.1073781452263041e-03 6.5813731562178559e-04  2.7187723594199742e-03 -1.4020183070927812e-03 7.0506118599100753e-04  0.0000000000000000e+00 0.0000000000000000e+00 0.0000000000000000e+00  0.0000000000000000e+00 0.0000000000000000e+00 0.0000000000000000e+00  0.0000000000000000e+00 0.0000000000000000e+00 0.0000000000000000e+00  0.0000000000000000e+00 0.0000000000000000e+00 0.0000000000000000e+00  0.0000000000000000e+00 0.0000000000000000e+00 0.0000000000000000e+00  0.0000000000000000e+00 0.0000000000000000e+00 0.0000000000000000e+00  0.0000000000000000e+00 0.0000000000000000e+00 0.0000000000000000e+00  0.0000000000000000e+00 0.0000000000000000e+00 0.0000000000000000e+00  0.0000000000000000e+00 0.0000000000000000e+00 0.0000000000000000e+00  0.0000000000000000e+00 0.0000000000000000e+00 0.0000000000000000e+00  0.0000000000000000e+00 0.0000000000000000e+00 0.0000000000000000e+00  0.0000000000000000e+00 0.0000000000000000e+00 0.0000000000000000e+00  0.0000000000000000e+00 0.0000000000000000e+00 0.0000000000000000e+00  0.0000000000000000e+00 0.0000000000000000e+00 0.0000000000000000e+00  0.0000000000000000e+00 0.0000000000000000e+00 0.0000000000000000e+00  0.0000000000000000e+00 0.0000000000000000e+00 0.0000000000000000e+00  0.0000000000000000e+00 0.0000000000000000e+00 0.0000000000000000e+00  0.0000000000000000e+00 0.0000000000000000e+00 0.0000000000000000e+00  0.0000000000000000e+00 0.0000000000000000e+00 0.0000000000000000e+00  0.0000000000000000e+00 0.0000000000000000e+00 0.0000000000000000e+00  0.0000000000000000e+00 0.0000000000000000e+00 0.0000000000000000e+00  1.0448057057212067e-02 -6.1309744487403426e-03 6.6660514612960449e-03  1.1145368965997564e-02 -6.2041917908648211e-03 6.9050565259858145e-03  1.1823890650234974e-02 -6.3257929999932993e-03 7.1399908321965978e-03  1.2492365511578007e-02 -6.4855189239305250e-03 7.3796662105378033e-03  1.3154827013293600e-02 -6.6740346823293334e-03 7.6325167694310881e-03  1.3816522009524136e-02 -6.8866872642054117e-03 7.9089323949837944e-03  1.4483635420549692e-02 -7.1270946946267837e-03 8.2240197149447882e-03  3.0229557670577176e-03 -2.3444938872187555e-03 9.6700723587095816e-04  8.1760290848209907e-04 6.9595407154665221e-04 -2.0128967206187152e-05  9.1712331461115749e-04 5.1907657000006791e-04 9.0902500887029151e-05  9.8295687362856088e-04 2.3443897842008817e-04 2.7592418660853590e-04  1.0890619576722964e-03 -1.2997363501690698e-04 5.0322567291880645e-04  1.2426023169938463e-03 -5.4379683643740364e-04 7.5222925015448229e-04  1.44992862817