<?xml version="1.0"?>
<VTKFile type="UnstructuredGrid"  version="0.1"  >
<UnstructuredGrid>
<Piece  NumberOfPoints="959" NumberOfCells="4141">
<Points>
<DataArray  type="Float64"  NumberOfComponents="3"  format="ascii">6.295917202692371 3.245075399111341 4.080354225475965  6.405817977821505 3.18736647556823 4.143558021735036  6.419617239215071 3.297253761916869 4.064938660382502  6.405809185813004 3.345403822625002 4.125821365540584  6.394698659229316 3.231275804179999 4.210275096036864  6.28374918258186 3.293445442216659 4.141858601372567  6.392138991369293 3.393474622013472 4.186658778910383  6.383676800464774 3.275101300998423 4.276914758215902  6.271671033661703 3.341690883525617 4.203360914028063  6.259660847282538 3.389865977874946 4.264851461958171  6.372716323003821 3.318858940762757 4.343497715672147  6.378552460465253 3.441468416981439 4.247451182638961  6.24769612769501 3.437997204352941 4.326320335086385  6.361788693089028 3.362546673934545 4.410047727421651  6.365004529759749 3.489401751383726 4.308214180729814  6.351447243964118 3.537269749213937 4.368970931041748  6.350865331109472 3.406156344882827 4.476579846795633  6.235732601403165 3.486084939663082 4.387779396332474  6.339913447568934 3.449681209108572 4.543141306270696  6.223737640074126 3.534152135148025 4.449228595108988  6.337819080634379 3.585059201665868 4.429732127645279  7.286632227865836 3.03274519213382 4.207078988381193  7.197695108995941 3.124988431660427 4.19570795435409  7.189396313753913 2.968405171405308 4.231253797694196  7.201590336437536 2.981442075427543 4.313743653418511  7.205649367047972 3.147810567551592 4.276279123075918  7.29920369902222 3.047042685783688 4.28950747971517  7.213713644126577 2.994555029804258 4.396187570130975  7.2135378064232 3.170719639667588 4.356764801740844  7.311715002371998 3.061414572176883 4.371880546419248  7.22581378567056 3.00767487495595 4.478585374698423  7.221401328214035 3.193641948154074 4.437175939979581  7.324203184368486 3.075789600140675 4.45419482082501  7.237911529162203 3.020760755205141 4.56094337226216  7.229259972247261 3.216525072833408 4.517530541239058  7.336685132302291 3.090123716142268 4.536461114178141  7.250019370335728 3.03378550778124 4.643277609795204  7.23712744044324 3.23933029927319 4.597853748380541  7.349165974553108 3.104380727559842 4.618697233410958  7.262159256667534 3.046705237058347 4.725619679809667  7.245015820755404 3.261997466048173 4.678187211027408  7.361647877226726 3.118529915653846 4.700926350412471  7.135559337780903 3.855143241029925 4.21311870229512  7.241924675538042 3.799449800693462 4.253921018029109  7.170411447421924 3.725206784395156 4.294966073731555  7.140192854181713 3.81201742064311 4.143777791538951  7.172995339249632 3.684304060963987 4.223623806219783  7.16781227566173 3.766023601253286 4.3662063933357  7.130900704287755 3.898188513681663 4.282333952759132  7.242080583292169 3.841461945106333 4.324821324554147  7.165215887602787 3.806650041539065 4.437395143817273  7.126233179707235 3.941073782570524 4.351451590912487  7.24224825623743 3.883293759560249 4.395618599574318  6.434544058385816 3.393733158370333 3.98996855186743  6.462617565992262 3.480251320225566 3.918268871835763  6.349676734903204 3.466827229027058 3.885540406975466  6.330178254033447 3.518428118543942 3.936354924479181  6.442189772941521 3.529017555537673 3.97285107698832  6.417942884403336 3.443728760452442 4.046521150839475  6.310893135909526 3.569972230810783 3.987235045504442  6.422015938835965 3.577748005814942 4.027410341729159  6.401521878382233 3.493668343395965 4.103057303496839  6.291722261216885 3.621462200632529 4.038139891236418  6.401967210359246 3.626429532361361 4.081949009382984  6.38519817451822 3.543545511778607 4.159565945473808  6.272592951476651 3.672928989778399 4.089043671431184  6.381957343148993 3.675058688722974 4.136466041295535  6.368909241284979 3.593364972623315 4.216051709849713  6.253412575380477 3.724378780521115 4.139942148290173  6.36189771444983 3.723621630316889 4.190960690962587  6.352585688508658 3.643117102055236 4.272527060347807  6.23407014727069 3.77581245345546 4.190842758838409  6.341650927108677 3.772070128054211 4.245431037789309  6.336152675098219 3.692800355532536 4.329015679571572  6.300082230746368 3.366923469186728 3.973644843077304  6.284994847798673 3.419161989412504 4.027901196048062  6.270053794315586 3.471294660060435 4.082208618489411  6.255198888052231 3.523364910503342 4.136530015799518  6.240383313139779 3.57541128866273 4.190847013185208  6.225540016639509 3.627447971178571 4.24516134981162  6.210618301665059 3.679497722640626 4.299477584029699  6.317628412536499 3.118399371689295 4.173093207679869  6.307690932586271 3.159980122447353 4.242322252962291  6.29781139609841 3.201449543085846 4.311481736250828  6.287979268715788 3.24284663597257 4.380588098312922  6.278180151926724 3.284186565927563 4.449659809154163  6.268395574142829 3.325467436089535 4.518713220382522  6.258613334383404 3.366680657234195 4.587767526533739  6.986995224276893 2.685967135271245 4.267232117622222  6.912851286054399 2.755152488753718 4.285507153711515  6.904120378896825 2.618057703749016 4.269854105591572  6.914076351629071 2.604343062132202 4.351815162846783  6.921683067417454 2.752813201667625 4.369326870768377  6.998977755830263 2.676682047154523 4.349766570128829  6.923972662547928 2.590676315658786 4.433789348809094  6.930455584006917 2.750519732168721 4.453129015503446  7.01089886569997 2.667435872830925 4.432301235893279  6.933861682294395 2.577014331085556 4.515761143780775  6.93921654139672 2.748233728022233 4.536915690296128  7.022806250519762 2.658190698212573 4.514827024925242  6.943765601234688 2.563331436936502 4.597722537678862  6.947993688023963 2.745927347392484 4.620688358083914  7.0347284838749 2.648929723484579 4.5973433307669  6.953698230184381 2.549607034597142 4.679671760004681  6.956805693411241 2.743569900219202 4.704451307124305  7.046676449940429 2.639631375439093 4.679850223550475  6.963680083429856 2.535821076691055 4.761610874701729  6.965672381847678 2.74112848706462 4.788216432732919  7.058665515259534 2.630264262212357 4.762357419391353  7.078276489861842 3.078160539303382 4.221169090290352  7.085992488744699 3.101627323300701 4.301302532877397  7.093638712190425 3.125161308232561 4.381350920583214  7.101261424114768 3.148704278930195 4.461330562551789  7.108886194183784 3.172209421159515 4.541264720896564  7.116552203968102 3.195652125171572 4.621180270859496  7.124272169566726 3.218960983301321 4.701118654349656  7.468208641950674 3.101794402455512 4.163648726314145  7.418466401535928 3.2064661827626 4.146877102028487  7.332546849990818 3.127800476646134 4.180323271572033  7.343898683905485 3.147598765932012 4.261873454982304  7.429038310457831 3.229478124000213 4.227698242945549  7.483142690069104 3.116036515842793 4.245396732683095  7.355187078403889 3.16748857877525 4.343330027158149  7.439547971259073 3.252582860484845 4.308395747204361  7.498011770874387 3.130345379118904 4.327067347781146  7.366449865451481 3.187383825078495 4.424705381147201  7.450023763433965 3.275686734672242 4.388994400947435  7.512854279725512 3.144649194441611 4.408657886150884  7.377701702424453 3.207230468184825 4.506019410479304  7.460480317331337 3.298732770214455 4.469518242072476  7.527685386039012 3.158902478446129 4.490184000028443  7.388948704274 3.226989915608926 4.587295793459119  7.470919450338905 3.321668756521091 4.549993657160817  7.542514858207786 3.173070010221123 4.571661847954044  7.400193231898595 3.246624525000084 4.668567052794643  7.481350823476999 3.344472089185301 4.630429587176312  7.557349955362561 3.187126931796892 4.653099027908879  7.154103715495178 3.682094213486081 3.934586398363172  7.041044006488645 3.629187858254661 3.955255038508572  7.180707848430292 3.561229139229259 4.008533997785312  7.033123072454226 3.671386930859031 4.02432894380779  7.149425084700019 3.725481284749084 4.004561471359173  7.178116652159907 3.602291121635381 4.080467238012094  7.175557506954095 3.643328474381529 4.152140549667352  7.025266540089595 3.713530386693476 4.093134423666667  7.144800118737075 3.768798997972659 4.074274341374021  7.01744735869122 3.75559899012993 4.16175519686935  7.009657802306965 3.797561814695877 4.230240877104999  7.001866250870495 3.839444108781204 4.298599291660213  6.994041904137061 3.881154703020665 4.366847238870639  6.760434199724414 3.031268088496447 4.252147480820289  6.752566307624556 2.89384017037231 4.285953109104801  6.840672518820599 2.96999643711373 4.268936180764642  6.842858350326619 2.988793270306744 4.350837993878026  6.755055005042832 2.908074922962994 4.368849125033425  6.759057920308705 3.055792431357359 4.33196404375954  6.757672061452213 3.080361563824576 4.411678869446511  6.757500991613427 2.922361799717657 4.451661720964077  6.845005634996367 3.007645543663469 4.432634255400757  6.759947177396054 2.936648003392238 4.534422130908533  6.756298975720928 3.10492534818621 4.491309735007145  6.847157232823135 3.026504011242833 4.514371618914414  6.75496074655226 3.129440848975606 4.570898673448966  6.762418818063145 2.950893714830571 4.617142259217467  6.849338806211382 3.045327560597288 4.59607632422356  6.753662644581636 3.15386115082714 4.650470448912627  6.764936465049373 2.965058666200306 4.699849306922621  6.8515596738092 3.064069356946781 4.677763038283826  6.752391439649059 3.178149056744239 4.730051405341423  6.767509942713211 2.979109307720776 4.782559672256353  6.85381906037817 3.082689536884403 4.759455255422494  7.38875642181271 3.015194890476496 4.190304390547722  7.404322704964906 3.026230525519039 4.272742788081057  7.419829344563563 3.037330026771596 4.35511955428223  7.435312140481209 3.048427191751383 4.437437530758329  7.450785632580601 3.059482030528751 4.51970403633393  7.466255021659199 3.070464022907469 4.601931741293953  7.481727321083979 3.081350579979563 4.684128817829277  6.796054387518032 2.652568772098213 4.286784344396852
[...]
<PointData  Vectors="f_16"> 
<DataArray  type="Float64"  Name="f_16"  NumberOfComponents="3" format="ascii">4.7666740084308629e-02 -1.4995192805847851e-02 1.6681207266499295e-02  4.6638110672892800e-02 -1.4016911854143643e-02 1.7455531632020481e-02  4.6606613218295068e-02 -1.3788710826360439e-02 1.6768286675106950e-02  4.5848182287468356e-02 -1.3453868543258913e-02 1.6682414957832899e-02  4.5998720774396956e-02 -1.3660772059704358e-02 1.7455149536380703e-02  4.6939429165235663e-02 -1.4625898113848812e-02 1.6553617716059774e-02  4.5192467046732757e-02 -1.3140055088619188e-02 1.6587537611477247e-02  4.5448794686420019e-02 -1.3328633838430448e-02 1.7431986044949201e-02  4.6292060719598044e-02 -1.4275146510003547e-02 1.6439884348452869e-02  4.5687120539061765e-02 -1.3940326313008648e-02 1.6324029201314479e-02  4.4941717810971823e-02 -1.3019212114859301e-02 1.7383302587054644e-02  4.4588816283905999e-02 -1.2847110616350859e-02 1.6475249724455163e-02  4.5090931134986113e-02 -1.3617572292654040e-02 1.6200039091969071e-02  4.4441647335124415e-02 -1.2731332915764558e-02 1.7312591141964654e-02  4.3995628332528861e-02 -1.2575738253451287e-02 1.6343149862901082e-02  4.3375659333510709e-02 -1.2326029733126688e-02 1.6193477830235233e-02  4.3918395623844454e-02 -1.2468709713469623e-02 1.7223132627388324e-02  4.4471351071535652e-02 -1.3304648608532654e-02 1.6066381369421429e-02  4.3339438690470147e-02 -1.2232469340125068e-02 1.7119050796025714e-02  4.3805010213011870e-02 -1.2990216756013038e-02 1.5929003942871226e-02  4.2685347224872827e-02 -1.2106417329934838e-02 1.6026553774556883e-02  3.8057545595263399e-02 -9.8825942415534263e-03 1.7820458978269876e-02  3.8674880372808376e-02 -9.7146720150085540e-03 1.7884189634960825e-02  3.9222957372030194e-02 -1.0400130471743655e-02 1.8270121729874640e-02  3.9588909322350999e-02 -1.0198667635455311e-02 1.8528624085937972e-02  3.8945056770990902e-02 -9.4500036885786873e-03 1.8160857778336450e-02  3.8463694156510908e-02 -9.6573257002268622e-03 1.8072912193609278e-02  3.9897069864115224e-02 -9.9668989557289978e-03 1.8713681813731335e-02  3.9177200140824021e-02 -9.1678184827174349e-03 1.8338147857688208e-02  3.8817143809992002e-02 -9.4044112364210872e-03 1.8247624909514575e-02  4.0173848737546612e-02 -9.7277652362139644e-03 1.8834849579510222e-02  3.9384250135474572e-02 -8.8899200594386232e-03 1.8435214397645373e-02  3.9139136526983295e-02 -9.1446959417758565e-03 1.8360941579449022e-02  4.0438742708310223e-02 -9.4955949629204825e-03 1.8901894693392495e-02  3.9579390007883873e-02 -8.6313288078852992e-03 1.8467551379215789e-02  3.9449572464108920e-02 -8.8928764996411610e-03 1.8420923350535846e-02  4.0704270592717869e-02 -9.2808268093520236e-03 1.8923534642361999e-02  3.9772102120131367e-02 -8.4056028846617066e-03 1.8448092995039276e-02  3.9761480255210112e-02 -8.6608896847927778e-03 1.8433877004276105e-02  4.0981200240964320e-02 -9.0930591620311408e-03 1.8909539540973467e-02  3.9978128248693234e-02 -8.2348197994585697e-03 1.8393519043666037e-02  4.0076081210681631e-02 -8.4598401400660418e-03 1.8401862755805590e-02  3.7168766037293473e-02 -6.4156126433806372e-03 1.5520253588799451e-02  3.6890654535991670e-02 -6.2970608852774990e-03 1.5663660428838055e-02  3.7553209937219174e-02 -6.6901982946047387e-03 1.6338761721887037e-02  3.7192867724378499e-02 -6.6854567671810645e-03 1.5665177489973779e-02  3.7531859358364374e-02 -6.9796078049206107e-03 1.6452441397986593e-02  3.7574080353302626e-02 -6.4461935613661552e-03 1.6147127508407768e-02  3.7147245137241838e-02 -6.1868876614738239e-03 1.5294190050714942e-02  3.6980659013373461e-02 -6.0358273219826911e-03 1.5446467139748307e-02  3.7602548017850450e-02 -6.2853094713666681e-03 1.5899430878053431e-02  3.7124774852708632e-02 -6.0220696684678606e-03 1.5004819890090722e-02  3.7065481272242233e-02 -5.8366338722627628e-03 1.5167454413284378e-02  4.6567382644369465e-02 -1.3553802896955004e-02 1.6124145705034894e-02  4.6430309028621615e-02 -1.3189126988714859e-02 1.5575848391072015e-02  4.7766299440026791e-02 -1.4556032111487927e-02 1.5095207413571180e-02  4.6812370085662545e-02 -1.4346574681505804e-02 1.4800472579644851e-02  4.5496025867156023e-02 -1.2964339201055648e-02 1.5388819907347244e-02  4.5713931628720984e-02 -1.3267123271017082e-02 1.5972255334038277e-02  4.5971867852254572e-02 -1.4126630687704715e-02 1.4541428844600661e-02  4.4701282290739573e-02 -1.2748458946464257e-02 1.5202533282922837e-02  4.4975607166517141e-02 -1.2990839895309449e-02 1.5820637662411756e-02  4.5195229312703762e-02 -1.3905162231263920e-02 1.4295023222171148e-02  4.3977226779009650e-02 -1.2543170617992407e-02 1.5005287528938982e-02  4.4294865506345191e-02 -1.2729390845470595e-02 1.5655753005964682e-02  4.4432103472423386e-02 -1.3686255420639301e-02 1.4047698902101493e-02  4.3267564707818916e-02 -1.2353565958206789e-02 1.4789855208698540e-02  4.3624777423721936e-02 -1.2486967934552702e-02 1.5472781553507304e-02  4.3629336011648943e-02 -1.3474261365329532e-02 1.3791607519322130e-02  4.2518095575897620e-02 -1.2189078501296035e-02 1.4549449596912203e-02  4.2920359050297487e-02 -1.2270934627312722e-02 1.5270458108123084e-02  4.2718705967558092e-02 -1.3278840496625156e-02 1.3532144218208076e-02  4.1673187372382937e-02 -1.2078388458729118e-02 1.4280559629119156e-02  4.2138518062903134e-02 -1.2091917642800995e-02 1.5053067763739415e-02  4.7911794422514746e-02 -1.5031958065941793e-02 1.5717652630162740e-02  4.7054544237170960e-02 -1.4730932573422289e-02 1.5475842585042261e-02  4.6289643033353770e-02 -1.4429770641542512e-02 1.5265795822377250e-02  4.5575196629331065e-02 -1.4132674532459037e-02 1.5066537779737262e-02  4.4869199062949686e-02 -1.3840060913256270e-02 1.4867141828436972e-02  4.4129735577796127e-02 -1.3549025519422078e-02 1.4662638803777004e-02  4.3312011206832507e-02 -1.3251575687754100e-02 1.4452552058458865e-02  4.7375720593505408e-02 -1.4835524789392063e-02 1.7625155361178022e-02  4.6789306170523973e-02 -1.4455801809312923e-02 1.7625453001499241e-02  4.6274058902247131e-02 -1.4102058011157156e-02 1.7614446422101211e-02  4.5794685188798673e-02 -1.3768464548736205e-02 1.7586648827445053e-02  4.5321937210219307e-02 -1.3451704088220747e-02 1.7540564527640464e-02  4.4830167283025829e-02 -1.3149343451152552e-02 1.7477094485518124e-02  4.4299047386761027e-02 -1.2857188816230887e-02 1.7406679899883284e-02  4.2076557360310435e-02 -1.2391977848706149e-02 1.9135199862993602e-02  4.2606970424725457e-02 -1.2389305409944561e-02 1.9250507089509948e-02  4.3044138496634514e-02 -1.3037434438133792e-02 1.9333198592515755e-02  4.3394021908150393e-02 -1.2967186538495937e-02 1.9617637670040832e-02  4.2872637070955420e-02 -1.2262000253757939e-02 1.9546303018900542e-02  4.2444572146971636e-02 -1.2298991732287099e-02 1.9410806955330255e-02  4.3723930216555004e-02 -1.2870678835677099e-02 1.9843245346437818e-02  4.3116115732484375e-02 -1.2109643245511162e-02 1.9768222280308851e-02  4.2779723266709389e-02 -1.2176348124630669e-02 1.9625663022419752e-02  4.4038165487061888e-02 -1.2754512421160139e-02 2.0021131396684762e-02  4.3345985644830082e-02 -1.1947326918593834e-02 1.9932571329219766e-02  4.3096255375650115e-02 -1.2036636625209846e-02 1.9791461588220708e-02  4.4344688668048270e-02 -1.2626538430122654e-02 2.0157584039534559e-02  4.3569203916905976e-02 -1.1781766951842762e-02 2.0049668694592595e-02  4.3404486036183701e-02 -1.1887882378349512e-02 1.9915711019869581e-02  4.4649331669989960e-02 -1.2491847961350278e-02 2.0257816884184942e-02  4.3791090550988905e-02 -1.1618179503715057e-02 2.0126982798760833e-02  4.3711620358561333e-02 -1.1735963741559399e-02 2.0003039839899848e-02  4.4951245382203929e-02 -1.2354647068989082e-02 2.0328190425261180e-02  4.4008289586590484e-02 -1.1454838132043753e-02 2.0171053704241146e-02  4.4018937231267083e-02 -1.1575954556141623e-02 2.0050394149812030e-02  4.0029108395587536e-02 -1.0275423277096541e-02 1.8310094337595728e-02  4.0206469238051275e-02 -1.0019522524093065e-02 1.8592743303626823e-02  4.0342021795461015e-02 -9.7487391503508405e-03 1.8772340606287647e-02  4.0458182948183714e-02 -9.4835942352162576e-03 1.8872120049269234e-02  4.0567714553007693e-02 -9.2387656827436476e-03 1.8908946242375272e-02  4.0678810596522473e-02 -9.0267228831809251e-03 1.8896639929177401e-02  4.0811931058159633e-02 -8.8685384856905108e-03 1.8847964367992385e-02  3.5965954951219910e-02 -9.3348222975508967e-03 1.6890722379380080e-02  3.6130781938792843e-02 -9.0037715979535901e-03 1.6847005276375573e-02  3.7281947430975453e-02 -9.4040757217418065e-03 1.7424853426649803e-02  3.7684583642148856e-02 -9.1379912381794604e-03 1.7681514296528190e-02  3.6583575397563191e-02 -8.6946399399857044e-03 1.7094169726545816e-02  3.6494093942489342e-02 -9.0783050070204954e-03 1.7107384339092972e-02  3.8028457936920522e-02 -8.8469898777074236e-03 1.7846548043128921e-02  3.6973264046906602e-02 -8.3646126711114759e-03 1.7244917352226111e-02  3.6937193486540496e-02 -8.7881758887228944e-03 1.7265723997860961e-02  3.8340487247712031e-02 -8.5516292349287724e-03 1.7941614983108319e-02  3.7325261534988122e-02 -8.0341982963829470e-03 1.7326064227265681e-02  3.7341640933381853e-02 -8.4876277621772373e-03 1.7376316404649195e-02  3.8639840878651653e-02 -8.2684793432185339e-03 1.7978038889636911e-02  3.7663335286912070e-02 -7.7178735447984738e-03 1.7348363372014074e-02  3.7739129372095934e-02 -8.1913430167613287e-03 1.7441656512796631e-02  3.8937482894694710e-02 -8.0096592355463538e-03 1.7961627381608225e-02  3.7999728111230105e-02 -7.4262929678072086e-03 1.7313878324984423e-02  3.8150400886591308e-02 -7.9090689187025151e-03 1.7458851746722223e-02  3.9247245904200381e-02 -7.7997390768158132e-03 1.7900065258832833e-02  3.8346360525079323e-02 -7.1766452575370947e-03 1.7224050716146605e-02  3.8583714601130775e-02 -7.6454054828238773e-03 1.7417458287192735e-02  3.7274630179219864e-02 -7.8507750442365892e-03 1.5444948692184138e-02  3.8813019037819085e-02 -8.3548710522835575e-03 1.5919484801615848e-02  3.7446265526408368e-02 -8.1384451967412980e-03 1.6145110673507327e-02  3.8583085363891989e-02 -7.9410042853005781e-03 1.6134125262206481e-02  3.7239950839389267e-02 -7.3901476697491681e-03 1.5656744879247949e-02  3.7476410164130766e-02 -7.6976549999713479e-03 1.6386040262442194e-02  3.7505966865277102e-02 -7.3144838115170403e-03 1.6475584318592966e-02  3.8386050551505228e-02 -7.5877691683141658e-03 1.6210381713331588e-02  3.7215913823333974e-02 -7.0063535318942499e-03 1.5717820301419518e-02  3.8209013308357583e-02 -7.2908967656334350e-03 1.6176983512759962e-02  3.8042154156453165e-02 -7.0445771101432086e-03 1.6053382513993693e-02  3.7880511899973726e-02 -6.8460168647339103e-03 1.5847304528509527e-02  3.7738338518622315e-02 -6.7168288583254777e-03 1.5567851875069998e-02  4.3399798842748222e-02 -1.1948741154288497e-02 1.8785768387972638e-02  4.3757517652713698e-02 -1.2553660036852163e-02 1.9180405274533272e-02  4.2756879849789008e-02 -1.1774602434931870e-02 1.8946886248828222e-02  4.2754605413836827e-02 -1.1543973256399023e-02 1.9242542578130472e-02  4.3750373452309310e-02 -1.2333530305951938e-02 1.9476688920309071e-02  4.3252376319302552e-02 -1.1686733587383952e-02 1.9057206515326948e-02  4.3136316244658926e-02 -1.1432502320084369e-02 1.9233456811561713e-02  4.3747021820179754e-02 -1.2111454556994654e-02 1.9684648155863665e-02  4.2766501376788599e-02 -1.1312372128265132e-02 1.9437390578198939e-02  4.3746491494678900e-02 -1.1895644160455434e-02 1.9825608819617618e-02  4.3032283953713286e-02 -1.1194892040944742e-02 1.9337591769337845e-02  4.2775169166444534e-02 -1.1088086767633740e-02 1.9559612015387515e-02  4.2929177930904595e-02 -1.0981887184034955e-02 1.9387812235219418e-02  4.3744670945466531e-02 -1.1692045807108647e-02 1.9913668033040094e-02  4.2782378217431020e-02 -1.0880959270132254e-02 1.9627379293804731e-02  4.2820759982185701e-02 -1.0800399303067839e-02 1.9396816180499193e-02  4.3743652901775017e-02 -1.1505309462452954e-02 1.9959477795619858e-02  4.2786975642962063e-02 -1.0701485443812124e-02 1.9652206876541015e-02  4.2712587959852916e-02 -1.0667624131300148e-02 1.9372573954156327e-02  4.3742356099672197e-02 -1.1340395155954216e-02 1.9975837937306500e-02  4.2795621877157790e-02 -1.0561011718326333e-02 1.9647094956262826e-02  3.7041404046624753e-02 -9.7619912629023919e-03 1.7435883544443441e-02  3.7546467987770241e-02 -9.5424479430441644e-03 1.7654679852243400e-02  3.7969760003338369e-02 -9.2888006296155175e-03 1.7822837546227651e-02  3.8356306986494851e-02 -9.0219502172537297e-03 1.7942279885063549e-02  3.8734051062515366e-02 -8.7569221821796519e-03 1.8016250589969987e-02  3.9120507261530775e-02 -8.5034197125470803e-03 1.8043502549320106e-02  3.9520274325369788e-02 -8.2680213100339000e-03 1.8020421810487904e-02  4.3909030454467091e-02 -1.3364684383646804e-02 1.9508253219272853e-02  4.4168400482869768e-02 -1.3266087046419872e-02 1.9804010050998973e-02  4.4401023086074576e-02 -1.3143201388289784e-02 2.0041285754787152e-02  4.4621362181083757e-02 -1.3004826565610920e-02 2.0223575473048722e-02  4.4838652883111604e-02 -1.2858035008849050e-02 2.0359627943579626e-02  4.5058983951210559e-02 -1.2707194307011369e-02 2.0456346914999438e-02  4.5287502731853641e-02 -1.2557530202103264e-02 2.0522331822445464e-02  3.8961788297075174e-02 -8.6364755157770246e-03 1.6592497677063344e-02  3.8811381813821384e-02 -8.2422802229066613e-03 1.6836241040563166e-02  3.8690116152035263e-02 -7.8916243933033793e-03 1.6943017522309714e-02  3.8581968803504722e-02 -7.5867565334971840e-03 1.6942304186231612e-02  3.8476490827144307e-02 -7.3294394829655808e-03 1.6853555278359581e-02  3.8369401909635170e-02 -7.1231028628809413e-03 1.6685979287317080e-02  3.8281761625495889e-02 -7.0010236667144028e-03 1.6460489196822043e-02  4.4940147759417085e-02 -1.3745838431575452e-02 1.5999937320350207e-02  4.4435185553143304e-02 -1.2684150095895502e-02 1.8860352672761850e-02  4.4221056712308110e-02 -1.2412583101743556e-02 1.9119823842019837e-02  4.4044055109557209e-02 -1.2148433076863240e-02 1.9293115104066432e-02  4.3883670350365479e-02 -1.1901156887459033e-02 1.9400616344028968e-02  4.3727620061767322e-02 -1.1675214196220226e-02 1.9458859486486596e-02  4.3566282010930248e-02 -1.1475981820899357e-02 1.9476642873392680e-02  4.3394691326015783e-02 -1.1311375685936782e-02 1.9459270068943879e-02  4.7800515856886154e-02 -1.5582361931863119e-02 1.4429925749175279e-02  4.0082479751653043e-02 -8.9600102976504000e-03 1.6409392788132741e-02  3.9741825659675968e-02 -8.5824701635455868e-03 1.6614416024803191e-02  3.9453352900816058e-02 -8.2544196023973688e-03 1.6696031788755481e-02  3.9190541926083081e-02 -7.9753641619981011e-03 1.6675561723582748e-02  3.8939020208361798e-02 -7.7454731095353913e-03 1.6570363467096193e-02  3.8687750744101593e-02 -7.5695552824027587e-03 1.6388132888985208e-02  3.8451230624823231e-02 -7.4728503451288496e-03 1.6129735028178518e-02  4.4043273367754134e-02 -1.3806828240110690e-02 1.9501298702200437e-02  4.4407117320828172e-02 -1.3782604342870030e-02 1.9773355871863317e-02  4.4745214286519161e-02 -1.3723583239144134e-02 1.9998915519687029e-02  4.5069314337478891e-02 -1.3640922844542710e-02 2.0181279425141817e-02  4.5388183006729109e-02 -1.3542575193305685e-02 2.0324990425186439e-02  4.5708776654018179e-02 -1.3434606937873628e-02 2.0434448155788407e-02  4.6038515261288576e-02 -1.3323542936453481e-02 2.0515298141853086e-02  4.2758914364417609e-02 -1.1436234165614019e-02 1.4877705802844579e-02  4.2764025471195677e-02 -1.1270469490589631e-02 1.5601003558410391e-02  4.2114457757738456e-02 -1.1089745527465517e-02 1.5408775898294711e-02  4.2043671271618788e-02 -1.1282322510143250e-02 1.4661026307521445e-02  4.1433455125221251e-02 -1.0953255404587477e-02 1.5175123460138889e-02  4.1297911210525291e-02 -1.1167964837567391e-02 1.4401963238562930e-02  4.0678918069105480e-02 -1.0890248719602523e-02 1.4899206056172627e-02  4.0480688186866856e-02 -1.1125863987733608e-02 1.4092799763852512e-02  4.5895524699122475e-02 -1.3912712886009709e-02 1.9130394107102284e-02  4.6862409337370903e-02 -1.4724706889117175e-02 1.9231379679843719e-02  4.5865752409380012e-02 -1.4099879857827881e-02 1.9418731759673534e-02  4.5788121697092017e-02 -1.3886680443008925e-02 1.9722039356398550e-02  4.6645062349963809e-02 -1.4466434519246396e-02 1.9480944784531468e-02  4.5670886349959229e-02 -1.3634561895529012e-02 1.9378277412927553e-02  4.5723221591029713e-02 -1.3678804570661058e-02 1.9942522142578641e-02  4.6474963787022039e-02 -1.4223493603048084e-02 1.9662459928613679e-02  4.5482874330881912e-02 -1.3372236998521681e-02 1.9548735093146311e-02  4.5670030554132067e-02 -1.3475611030736794e-02 2.0105367464414971e-02  4.6327042435755639e-02 -1.3990813750365448e-02 1.9797636811986093e-02  4.5310777100595598e-02 -1.3121722148872880e-02 1.9664752607159327e-02  4.5620817450907764e-02 -1.3278967778432122e-02 2.0223744695722405e-02  4.6179706312579914e-02 -1.3767082147463229e-02 1.9896072076055552e-02  4.5139932792514464e-02 -1.2884316739658307e-02 1.9738319187979230e-02  4.5569254810554967e-02 -1.3090440181545404e-02 2.0302985585768967e-02  4.5829500876025900e-02 -1.3345114042036581e-02 1.9994292759517102e-02  4.4760426247500880e-02 -1.2462843202498200e-02 1.9784484663303983e-02  4.5511231971782577e-02 -1.2907987107671265e-02 2.0343431375287990e-02  4.4958705490523831e-02 -1.2662818089757029e-02 1.9775353232727829e-02  4.6967971442691638e-02 -1.5037486674786693e-02 1.9576868982509918e-02  4.6886748457533316e-02 -1.4854446850458199e-02 1.9890226752264803e-02  4.6850610518878608e-02 -1.4675085161946927e-02 2.0124823549503471e-02  4.6831463708064888e-02 -1.4497519238549998e-02 2.0307071595897196e-02  4.4929292978978227e-02 -1.4195655922914224e-02 1.9684839426878601e-02  4.5219502501248995e-02 -1.4139321189353580e-02 1.9981759134169743e-02  4.5470479045566711e-02 -1.4054435937483291e-02 2.0220434854015465e-02  4.5710990177843004e-02 -1.3950056189561849e-02 2.0408847739257583e-02  4.5951937213699758e-02 -1.3832556714566673e-02 2.0555117654886119e-02  4.6201221526950269e-02 -1.3705805792473491e-02 2.0665631934720777e-02  4.6471028312144121e-02 -1.3573100960945769e-02 2.0747057583854873e-02  4.1406216186143284e-02 -9.8177174325484104e-03 1.7058152366356168e-02  4.1460177042883253e-02 -9.6666353119659321e-03 1.6528355644726451e-02  4.2667576522669289e-02 -1.0542414163934815e-02 1.7060015604139937e-02  4.2126956595127503e-02 -1.0183022210658465e-02 1.7213778441668059e-02  4.0969458670297797e-02 -9.3042383879634281e-03 1.6707431784012329e-02  4.1010650047920642e-02 -9.4532579898594111e-03 1.7259238991408087e-02  4.1654412954740670e-02 -9.8678372171550639e-03 1.7251577669574511e-02  4.0532553917675282e-02 -8.9845134916185700e-03 1.6768415572481456e-02  4.0652048706347185e-02 -9.1231179564901961e-03 1.7338116195620059e-02  4.1219575987493109e-02 -9.5896383846018948e-03 1.7209581273638645e-02  4.0135983153996739e-02 -8.7098477277265732e-03 1.6736084121362158e-02  4.0320279347186627e-02 -8.8317706180091951e-03 1.7322684258314285e-02  4.0797520897267472e-02 -9.3550974204020861e-03 1.7104065580094412e-02  3.9759031912176918e-02 -8.4824536814769487e-03 1.6627965506440988e-02  4.0001346937977800e-02 -8.5869038226258024e-03 1.7231359529037010e-02  4.0367097425867825e-02 -9.1800937892785768e-03 1.6943252115250929e-02  3.9384354654569166e-02 -8.3110897749018031e-03 1.6451264229174617e-02  3.9683297361404454e-02 -8.4029090647463629e-03 1.7076297361605573e-02  3.9913489703312530e-02 -9.0951404262360081e-03 1.6733597398004420e-02  3.9003651085369698e-02 -8.2191100632098661e-03 1.6201749134399538e-02  3.9356889588333326e-02 -8.3063016971478502e-03 1.6873503605997865e-02  4.2930681837958347e-02 -1.0543545179416627e-02 1.6497628961455572e-02  4.4098700552882335e-02 -1.1504552379585397e-02 1.6968873259536617e-02  4.3425677652460443e-02 -1.1182705402226580e-02 1.7027802303273502e-02  4.2292245714651074e-02 -1.0208699125339098e-02 1.6601613712740639e-02  4.2865754179169338e-02 -1.0896059591968044e-02 1.7012186513251183e-02  4.1729919973