<?xml version="1.0"?>
<VTKFile type="UnstructuredGrid"  version="0.1"  >
<UnstructuredGrid>
<Piece  NumberOfPoints="943" NumberOfCells="4053">
<Points>
<DataArray  type="Float64"  NumberOfComponents="3"  format="ascii">6.033015285135861 3.957036522866772 2.485090290710156  6.005692477651858 3.926858314443983 2.623887975571126  6.112815556335619 4.004067308679018 2.582912431269406  6.077059231394999 4.055807499475136 2.587836388054631  5.971395285136457 3.977868932939475 2.631269583228787  5.999000536452023 4.008912784416517 2.488498219165445  5.937427766078018 4.029320697335232 2.638608184443515  5.965309347618031 4.061246353196456 2.491892539814128  6.041601041523227 4.108002364920687 2.592736643536631  5.903408171802544 4.081026352057269 2.645988212187662  5.931637217254336 4.113833288957746 2.495315822428493  6.006205339646885 4.160430608382407 2.597666101272193  5.869205130155776 4.13288713359384 2.653404401193326  5.897812226331258 4.166510854488606 2.498774558822274  5.970693063381772 4.212922607886663 2.60263233786044  5.863664498807376 4.219155985289006 2.50227033297276  5.834576158437923 4.184812660410462 2.660871594161703  5.934925120226441 4.265309579643115 2.607647934454209  5.828981811865893 4.271613139161663 2.505804412856929  5.799329108731897 4.236589667773156 2.66842964571068  5.898669936146946 4.31743923815168 2.612704219009634  5.720347992844976 3.826796146931615 1.886077201466327  5.806583019191011 3.854421136791074 2.02195686841703  5.844748923161091 3.868043621368463 1.890458271661159  5.822407875106803 3.929421582348277 1.885741491165079  5.782063110922714 3.913042755695916 2.022527458904389  5.699259898922955 3.888643789889562 1.884107108847859  5.800413545330214 3.991108500840638 1.880886520499858  5.757863397661137 3.972066691355431 2.023004902997647  5.678458264204282 3.950848401921297 1.881984508684221  5.778527954554974 4.053002277878773 1.87595975212305  5.733735295330242 4.031395138303977 2.023438990853864  5.657719962393249 4.013329018849689 1.879796099278702  5.756574290363064 4.115039113589663 1.871038938640301  5.709496580552551 4.090938281862366 2.023903721333174  5.63687485596162 4.076058113086777 1.877635368296881  5.734416551590543 4.177160160692333 1.866189116335573  5.684969130886293 4.150628773730016 2.024470152911679  5.61574591094383 4.13903302613814 1.875592713633348  5.711913845365187 4.23930759525157 1.861463614401032  5.659920163350006 4.210397463308258 2.025213336134686  5.594146706867406 4.202213845138335 1.873748808674332  5.503816972730406 3.717745363490922 2.446694785063803  5.608876105370785 3.753622772771769 2.329880235840471  5.475060755578077 3.720138047809851 2.324768893597981  5.46316265760479 3.778037997413046 2.328494914240889  5.591216155660037 3.810208239556239 2.335248452937499  5.492629250691381 3.775703699126632 2.450275699188259  5.48151216689492 3.83387227392096 2.453987056365051  5.573726683345972 3.867168672328784 2.340654975647356  5.451324847591845 3.836300534791802 2.332304486002881  5.470332435309651 3.892379048185086 2.457747531513054  5.556184580138972 3.924445182062482 2.346113330518509  5.439428264594548 3.894896545693953 2.336171609523839  5.538491619331985 3.982020471717504 2.351597708200103  5.459021590550446 3.95127805952368 2.461525646150141  5.427415743970467 3.953902475649028 2.340066515079156  5.520542130513414 4.040031866005188 2.357139304854186  5.447568455190455 4.010649953934611 2.465275325420519  5.415254841554984 4.013385387946191 2.344005843177225  5.502149290133665 4.098618274431161 2.362833189573159  5.436041137504592 4.070716606904687 2.46899353617808  5.402841018197978 4.073551769840385 2.34798261690842  5.870968425970766 4.077334156628556 2.950896140820355  5.850093548341252 4.037215538451929 3.084281561915555  5.77662839005212 4.030911833021201 2.950629523213366  5.901953521222571 4.023384263549272 2.939498381853149  5.801534736075917 3.97403873456064 2.940181960933346  5.823444306969642 4.093945757820519 3.098445621084384  5.839680129815836 4.131457168770607 2.962342058503137  5.75150593587099 4.088104616561759 2.961050930445106  5.807797936915681 4.185674342417721 2.973823407464133  5.796237328913136 4.151067134807614 3.112609752199065  5.725873517385177 4.145868147524881 2.971472667456308  5.465809792722993 3.700640839155847 2.874364370977484  5.599254518156492 3.718365556231411 2.884818576341054  5.492033779388525 3.70787627622118 2.737047994451937  5.483276866040106 3.768111613738847 2.738408551897479  5.587545152343846 3.779369974560457 2.887739429569392  5.45880494507574 3.762967067220749 2.876062912225014  5.474411285465043 3.828610971128301 2.739992346167533  5.575741159516356 3.840595872562044 2.890880647318033  5.451614408175535 3.825473409575642 2.878043619382386  5.465452930258591 3.88941142236364 2.741625006301554  5.563865951473497 3.902064709942175 2.894109601144146  5.444360074313928 3.888254597584394 2.880111309212777  5.456452289901243 3.950555944559524 2.743207413303725  5.551949851296381 3.963823834131482 2.897313664988106  5.437107814048909 3.951339167275243 2.882124934636916  5.447455330782049 4.012134104266432 2.744645617897098  5.540036917205076 4.025966796576565 2.900390681456372  5.42994285218681 4.014755982839329 2.883964307249526  5.438673141601651 4.074258508419518 2.745780119978708  5.528311821043026 4.088708087746531 2.903142870689836  5.423045463570574 4.078506725011112 2.885465905384661  5.782831920421403 4.127635757659182 3.244100145007581  5.710191168680228 4.125231177058276 3.061443867287865  6.040157884340549 3.936155447049525 1.847909297727126  6.112549069426708 3.983948736966684 1.953091209311759  6.146405700469193 3.964294970159395 1.793330944749525  6.126129393320211 4.025742156793748 1.776643810317882  6.087286698990286 4.043491985429466 1.942546615120851  6.017321610466976 3.997531255385693 1.83698942854018  6.10629167309835 4.087245117254464 1.760033388743074  6.062537706464353 4.103174897418474 1.932046852816303  5.99492886889067 4.059038562110362 1.82607794190043  6.086642792310076 4.148697772562776 1.743442896206497  6.038016107665665 4.162875528168014 1.921536066961818  5.972728563971204 4.120590653270713 1.815136494626872  6.067020582965464 4.210069933289661 1.726848241830317  6.013511050077674 4.222528469848848 1.911020279065448  5.950527930260407 4.182132721272498 1.804182341986012  6.047290040468973 4.271335649023044 1.710234757099518  5.988848805943825 4.282066803763691 1.900507104645354  5.928173005631683 4.243627742553975 1.793236940378828  6.02731156843045 4.332478156754011 1.693585538122784  5.963837950846921 4.341404400016172 1.890000941346344  5.905498391559152 4.305040313521369 1.782307834392505  5.650758274975062 3.734831860289661 2.753530940741861  5.75955990230649 3.761440407434661 2.865362909851531  5.769475518690051 3.780374744619796 2.735131183817155  5.746681744242399 3.836121371658344 2.740597160443508  5.739492989062611 3.819191804805048 2.871635574480625  5.635020778536047 3.793012726165429 2.757115195607874  5.724006967870227 3.892179214122858 2.746182590507337  5.719438053977131 3.877255683958189 2.878030905725432  5.619286951362961 3.851473518471013 2.760872380685994  5.701283290005815 3.948507366076147 2.751778517475185  5.699360196848231 3.935574495563808 2.88448283864084  5.603474947114993 3.910208851723247 2.76468280395189  5.67842144894999 4.005122696685859 2.757373251251521  5.679192504346584 3.994158667792446 2.890938184003399  5.587580140287698 3.969244384297457 2.7684713328207  5.655314687153137 4.062118530899368 2.762920974057126  5.658895138899919 4.05308429337381 2.89731930337835  5.571582000642414 4.028643942018262 2.77217207568438  5.631713733235466 4.119638167038427 2.768382653529414  5.63839289926868 4.112534519869802 2.90354270142397  5.555464407182222 4.088630011039942 2.775681235393195  5.432086804788863 3.725551223670982 2.083418426908465  5.373383869337287 3.707325480774589 2.234984843767408  5.510190167420771 3.736054196303498 2.198178329437145  5.49546445240573 3.794031755337168 2.202570758182116  5.364752969996205 3.766177578993104 2.238336198441971  5.41990163934229 3.785182598348436 2.087194526977004  5.480833527520605 3.852444552378924 2.206976319959705  5.356163865390113 3.825293185352383 2.241754889218101  5.407785111783633 3.845148725209032 2.090938757008863  5.466158124133659 3.91122904339598 2.211420438340918  5.347530500223264 3.88481953240729 2.245214002171014  5.395641546148254 3.905490113743769 2.094700314066865  5.451363292160784 3.970393782439534 2.215905839310377  5.338806040483099 3.944752136216885 2.248707234585976  5.383396460404095 3.966222331670606 2.098517855264732  5.436360838448304 4.029977204798141 2.220479948354265  5.329969017448806 4.005144584399792 2.252248339895806  5.370973888055492 4.027397562826971 2.102457293030227  5.420969128663419 4.090046159999485 2.225243960424578  5.321045550244237 4.066087066847752 2.255866553297248  5.358204159925323 4.089157358235858 2.106621516431397  5.94152645691835 4.093812070757779 3.106966914483074  5.907790212780251 4.147176286657191 3.123643455854129  5.873308351951565 4.200596477309113 3.140425255192543  5.515589433098116 4.027999793463842 3.037121958652877  5.39719917878017 4.021945449261182 3.037164554703876  5.507293872221504 4.093093700830772 3.041245689868256  5.391340776591313 4.08798431256286 3.04051568570966  6.005329064617881 3.943577535881964 2.010609721418327  5.979081867639594 4.002524464048014 2.005557604238621  5.953293864355013 4.061737400492814 2.00046788054987  5.927671426764978 4.121085054255657 1.995341265326102  5.902004392972588 4.180476845642074 1.990206476204996  5.876116033834372 4.239835803456816 1.98510531162511  5.849810492406988 4.29908341995434 1.980066365524442  5.552013964397419 3.760635885095967 2.065049936518132  5.623719419754046 3.773646431630525 2.174956788220891  5.666539173272804 3.797810485406632 2.038228151525276  5.64548712737648 3.856598061273831 2.041313825648203  5.603999179353352 3.830897810395773 2.18000
[...]
<PointData  Vectors="f_16"> 
<DataArray  type="Float64"  Name="f_16"  NumberOfComponents="3" format="ascii">5.5379244877465920e-02 -2.0149013500777711e-02 4.8866753775388344e-03  5.6054939303730664e-02 -2.1097911262106819e-02 5.5722463680702014e-03  5.3094850253988558e-02 -1.8058633532246279e-02 5.5287121980232418e-03  5.1574548286241820e-02 -1.9072222621800618e-02 5.4533451103754111e-03  5.4528766555457596e-02 -2.2172788199163795e-02 5.4068115283573736e-03  5.3791941322248682e-02 -2.1175810649618015e-02 4.8414293069337470e-03  5.3095689108737909e-02 -2.3111348761695263e-02 5.2268107654821708e-03  5.2301126460357714e-02 -2.2101370828631065e-02 4.7739622978995640e-03  5.0134686917578025e-02 -1.9990459721695011e-02 5.3447287522532059e-03  5.1694872199072005e-02 -2.3969746932315145e-02 5.0441731519365821e-03  5.0850363972851753e-02 -2.2962762789863610e-02 4.7027798928728441e-03  4.8732667092552848e-02 -2.0860902939027336e-02 5.2381037736727908e-03  5.0289111727264510e-02 -2.4790375526812441e-02 4.8646049736893893e-03  4.9401029355381161e-02 -2.3793837551023673e-02 4.6351372103893423e-03  4.7344643890150674e-02 -2.1707551957984718e-02 5.1361429343223467e-03  4.7947898541775003e-02 -2.4628210501315563e-02 4.6094933154917188e-03  4.8892028391485216e-02 -2.5602339460246190e-02 4.7381628522656294e-03  4.5951595701083890e-02 -2.2569877140726193e-02 5.0749939421925435e-03  4.6441187830772682e-02 -2.5545288207431068e-02 4.6949431192243500e-03  4.7442093220837950e-02 -2.6496294624152233e-02 4.7569537332172711e-03  4.4465098143392320e-02 -2.3557584332455778e-02 5.1033926099248051e-03  6.0574199730888290e-02 -2.7218814356267513e-02 6.0368658933426865e-04  5.9847365460442351e-02 -2.5581381209706100e-02 1.7232193103966704e-03  5.8471815619107192e-02 -2.3987133165657218e-02 1.0614637168059433e-03  5.6738287335137562e-02 -2.4449424117396982e-02 1.4420827658170974e-03  5.8121121853158215e-02 -2.6305248077331193e-02 2.0390759495203330e-03  5.8918412724774737e-02 -2.7739720475409100e-02 1.0715306352242656e-03  5.5130855171945173e-02 -2.4803094615234188e-02 1.7860916583492391e-03  5.6516097175906117e-02 -2.6877893997113694e-02 2.3209916563313501e-03  5.7384369051796891e-02 -2.8095768302559415e-02 1.4925650964429857e-03  5.3583122722482855e-02 -2.5077069403133687e-02 2.1113578158476333e-03  5.4957352702652520e-02 -2.7345427700235167e-02 2.5916468797082550e-03  5.5886703801395099e-02 -2.8333454366645298e-02 1.8934324402964681e-03  5.2035710571901310e-02 -2.5301485877488965e-02 2.4324086227779209e-03  5.3381523121697395e-02 -2.7752085713240362e-02 2.8635251529513100e-03  5.4356944347833260e-02 -2.8493939109412923e-02 2.2949961228818051e-03  5.0461240537058576e-02 -2.5495783961785146e-02 2.7718160252393127e-03  5.1792728540908259e-02 -2.8109938809351715e-02 3.1757626754195896e-03  5.2838368288916540e-02 -2.8574667405690771e-02 2.7518479793224265e-03  4.8960241418697578e-02 -2.5617907043597281e-02 3.1859013474458955e-03  5.0296122333888880e-02 -2.8384404616568024e-02 3.6383300099943603e-03  5.1392726112178544e-02 -2.8588629060296172e-02 3.3717213079332569e-03  6.4111420076821385e-02 -3.5089992582589692e-02 3.4173209501208316e-03  6.3602018278156425e-02 -3.2377402136515424e-02 2.9482576693118166e-03  6.4573501770735633e-02 -3.5760232021360167e-02 2.4640197280377803e-03  6.3312437788138373e-02 -3.6346294487778277e-02 2.4605451101281641e-03  6.2167626232128202e-02 -3.3118777121837695e-02 2.9340914582973244e-03  6.2833095818018228e-02 -3.5643842096275601e-02 3.2636144556341048e-03  6.1560060048931962e-02 -3.6050227803568737e-02 3.1479066651373009e-03  6.0765124750809474e-02 -3.3702813973579097e-02 2.9407277410302543e-03  6.2057990189089356e-02 -3.6766639749941286e-02 2.4837428655709952e-03  6.0255061140518144e-02 -3.6322957536283187e-02 3.0564674811384062e-03  5.9351681299842661e-02 -3.4154418985884921e-02 2.9610260986450048e-03  6.0776582995321099e-02 -3.7037630434031771e-02 2.5281037331903069e-03  5.7869590783520199e-02 -3.4488743403192960e-02 2.9981890276615780e-03  5.8877534579079141e-02 -3.6461637004568781e-02 2.9777531327161520e-03  5.9422541856941985e-02 -3.7156412322911413e-02 2.5982158917231633e-03  5.6400295298631248e-02 -3.4663768928073019e-02 3.1042398177135522e-03  5.7605719582799170e-02 -3.6364940698208725e-02 2.9677419405141569e-03  5.8166519810942320e-02 -3.7046452156540510e-02 2.7569208283066632e-03  5.5171928492781110e-02 -3.4545913511405665e-02 3.4105628894594525e-03  5.6587414323658602e-02 -3.5925309086753364e-02 2.9813390834651349e-03  5.7144814303451176e-02 -3.6619022752353812e-02 2.9864675121132503e-03  5.0580543902403373e-02 -2.4404195288630463e-02 5.6327149976783935e-03  5.0837942987601276e-02 -2.4478845969287545e-02 5.9935709059819953e-03  5.2358801647038808e-02 -2.6782757049632556e-02 5.2838358894063001e-03  5.1925388236537758e-02 -2.3802121881081887e-02 5.9886357051804400e-03  5.3741625110713107e-02 -2.6356692265474716e-02 5.6681950452507589e-03  4.9511456723706333e-02 -2.4825057692721631e-02 5.6358392543938551e-03  4.9245059638487236e-02 -2.4969886347388535e-02 5.3247036306682304e-03  5.0990691608358868e-02 -2.7127091820809072e-02 4.9600575727664067e-03  4.7961489665158182e-02 -2.5494370321542326e-02 5.2378865286280187e-03  4.8324109601727526e-02 -2.5027286018204080e-02 5.4900952273661333e-03  4.9808017130541067e-02 -2.7270377805679768e-02 4.7536068182617254e-03  6.1122522180207750e-02 -3.3491918952979025e-02 5.9391890664348907e-03  6.0513949103466878e-02 -3.0961031335162897e-02 6.3204541509823573e-03  6.2286828485284884e-02 -3.4144600056792547e-02 5.2311631157233411e-03  6.1139492289011985e-02 -3.4538018589140428e-02 4.7570524367904392e-03  5.9326110818947682e-02 -3.1354773217005687e-02 5.7613737089023597e-03  6.0071182691805072e-02 -3.3753556018902377e-02 5.3136139823993286e-03  5.9963219353619687e-02 -3.4803990876514500e-02 4.3394721756600686e-03  5.8119283245945251e-02 -3.1642426011226014e-02 5.2575865666367157e-03  5.8969786180602453e-02 -3.3906156580112777e-02 4.7640211229962480e-03  5.8744576035233254e-02 -3.4951737439402185e-02 3.9522403960699521e-03  5.6884811342014438e-02 -3.1831059567632942e-02 4.7871240676566600e-03  5.7833634450550675e-02 -3.3949201809528456e-02 4.2570035406516082e-03  5.7546175453182337e-02 -3.4950161841488268e-02 3.6000970902059664e-03  5.5633454822743462e-02 -3.1905926279575732e-02 4.3468505742386794e-03  5.6780646006770186e-02 -3.3837648058305241e-02 3.7853442765109204e-03  5.6494643197864854e-02 -3.4722741894895173e-02 3.2298902117382693e-03  5.4511436904114842e-02 -3.1786816779020378e-02 3.9263416667100143e-03  5.5833462242309735e-02 -3.3552632147277432e-02 3.2446295574652031e-03  5.5572164267377995e-02 -3.4283408499506569e-02 2.6834426312468277e-03  5.3554537735627877e-02 -3.1431842245502550e-02 3.3230423469236057e-03  5.4960776117776951e-02 -3.3122972434771990e-02 2.5534870479644442e-03  4.8327597064027575e-02 -2.4295114941484692e-02 5.7258870688991527e-03  5.0072968875550211e-02 -2.6967271767019831e-02 4.8313412525613601e-03  5.4248392431681496e-02 -1.8920876520155165e-02 1.2888765859294959e-03  5.2671467413353872e-02 -1.7198918706881037e-02 2.0722484404443508e-03  5.1774561937170165e-02 -1.6463015766633421e-02 1.1391241673610762e-03  5.0253078017483889e-02 -1.6530040971154795e-02 1.1962651459174075e-03  5.1065097557632111e-02 -1.7570142400981772e-02 2.1982224331592022e-03  5.2607102141947658e-02 -1.9191998587593299e-02 1.5066725268204698e-03  4.8823804975172455e-02 -1.6610512854561006e-02 1.3310222530706955e-03  4.9502198719246125e-02 -1.7929903600906898e-02 2.3829527704466581e-03  5.1055210906877715e-02 -1.9430885022415294e-02 1.7377474098446480e-03  4.7499579457375068e-02 -1.6720566509775856e-02 1.4662052679254634e-03  4.8034769159840993e-02 -1.8277456867928019e-02 2.5535154183131798e-03  4.9591448366686983e-02 -1.9654076211255134e-02 1.9560132155877789e-03  4.6205644837507859e-02 -1.6871392123934351e-02 1.6130720865503532e-03  4.6596468916792082e-02 -1.8645445838639172e-02 2.7287018908153256e-03  4.8151697679636375e-02 -1.9886514141622128e-02 2.1765853686194396e-03  4.4876450303978896e-02 -1.7075849239608101e-02 1.7719144016430097e-03  4.5123948099980223e-02 -1.9055241558663793e-02 2.9165102456799579e-03  4.6677109224573479e-02 -2.0144517217143176e-02 2.4046071724792800e-03  4.3449409350548675e-02 -1.7348965659047758e-02 1.9402319839942491e-03  4.3563962728757434e-02 -1.9520022789552314e-02 3.1115624152751879e-03  4.5152787295161444e-02 -2.0417934810213423e-02 2.6314274307150864e-03  6.1423995758863981e-02 -3.0615308628793900e-02 5.7106173040166359e-03  5.9579213557514644e-02 -2.7552991731612370e-02 6.5135659255255033e-03  6.0319397577271471e-02 -2.7725742928098571e-02 5.7901358955648671e-03  5.8927501842120249e-02 -2.8487682528096407e-02 5.4240566876524792e-03  5.8243454217611734e-02 -2.8167284356850789e-02 6.0453694934256589e-03  6.0122482564210530e-02 -3.1182483082399320e-02 5.2850226474690986e-03  5.7561129691102546e-02 -2.9123892369890186e-02 5.0849074556771172e-03  5.6925967621796345e-02 -2.8672652459062756e-02 5.6120367706702584e-03  5.8825402749453914e-02 -3.1637797396216243e-02 4.8979428563672581e-03  5.6193797488394072e-02 -2.9659103027651006e-02 4.7604308354626907e-03  5.5603204212142286e-02 -2.9083412112000637e-02 5.2021183845420635e-03  5.7510652284587578e-02 -3.1989057412505184e-02 4.5360505310193125e-03  5.4782257182262456e-02 -3.0111708418728945e-02 4.4447864028927123e-03  5.4235390523663052e-02 -2.9409649151464989e-02 4.8048507278561818e-03  5.6146675666583587e-02 -3.2239699096391725e-02 4.1859266988494110e-03  5.3370319853574835e-02 -3.0456336455988484e-02 4.1771666076666058e-03  5.2904302812352519e-02 -2.9605683606418479e-02 4.4626484497843196e-03  5.4842437823651349e-02 -3.2325261136940363e-02 3.8738355280555159e-03  5.2186531961050130e-02 -3.0546914069187161e-02 3.9500365544038966e-03  5.1803438346934877e-02 -2.9529948689878540e-02 4.1266139743850912e-03  5.3776385446016185e-02 -3.2109634216303959e-02 3.5093531449644586e-03  6.4799780894195400e-02 -3.5763880736823593e-02 5.6824343988594133e-04  6.5124984899044572e-02 -3.7761143852635300e-02 1.4374729261977231e-03  6.4438744410935972e-02 -3.4562560345504645e-02 1.6881717765480581e-03  6.3108347126476602e-02 -3.5215776183971169e-02 1.8549191944875548e-03  6.4010930147317638e-02 -3.8263315680277604e-02 1.5694740076450462e-03  6.3574698848153144e-02 -3.6332587540865720e-02 9.1004954844146251e-04  6.1799809751512065e-02 -3.5697225121173307e-02 2.0249951142100675e-03  6.2898180538280710e-02 -3.8584999769064085e-02 1.7249135948902202e-03  6.2378070656783399e-02 -3.6709629866216668e-02 1.2482105644404157e-03  6.0475174961136267e-02 -3.6022920212491448e-02 2.2075464397035825e-03  6.1750415915746343e-02 -3.8735535798297291e-02 1.9026852226973203e-03  6.1164697844778952e-02 -3.6912221600610355e-02 1.5943616957430041e-03  5.9076116259060091e-02 -3.6204110706100204e-02 2.4143028514994258e-03  6.0547481722917039e-02 -3.8705824495235547e-02 2.1120451259628603e-03  5.9874135883428756e-02 -3.6946650177874144e-02 1.9643502719455226e-03  5.7730400382915423e-02 -3.6187170360582471e-02 2.7184942361961626e-03  5.9451354172459128e-02 -3.8432400837023310e-02 2.4024461405831379e-03  5.8640471752820153e-02 -3.6771949410262773e-02 2.4348337161542014e-03  5.6601933800422007e-02 -3.5890163193171030e-02 3.2180627137134632e-03  5.8562049265783740e-02 -3.7850546240884478e-02 2.7603469890019024e-03  5.7600740762388462e-02 -3.6323369942748984e-02 3.1220383841036895e-03  4.8715436892445785e-02 -2.2214231902113739e-02 6.3627101284174196e-03  4.7470395781515191e-02 -2.2753629520485319e-02 6.0462387051106849e-03  4.6214571133944241e-02 -2.3322929622161551e-02 5.9713271756771952e-03  5.3871805790236857e-02 -3.0621436816755394e-02 3.9677256151737549e-03  5.4989429390043511e-02 -3.2028651173311308e-02 3.1577722389361041e-03  5.2965166454468769e-02 -3.0215616325452901e-02 3.2380408375013619e-03  5.4150283989571592e-02 -3.1633896874433812e-02 2.3275386940549122e-03  5.5359048051692096e-02 -2.0069698681641136e-02 2.2266185644054652e-03  5.3647880721651317e-02 -2.0622495962071753e-02 2.4553068167129698e-03  5.2018172994572481e-02 -2.1114836969999714e-02 2.6703065063034613e-03  5.0454604903206912e-02 -2.1563687056812265e-02 2.8777192291966880e-03  4.8907516014957880e-02 -2.1997582161480220e-02 3.0888869028481876e-03  4.7330043497647051e-02 -2.2443633563510881e-02 3.3063406629815838e-03  4.5750994700268402e-02 -2.2894146264535429e-02 3.5450206311054473e-03  6.3734126312502928e-02 -3.2815731412818044e-02 9.8365008201718794e-04  6.3278438226816738e-02 -3.1492233385606805e-02 1.9790707812881486e-03  6.2296688861240623e-02 -2.9588395703508352e-02 1.2779355959202678e-03  6.0719144632370652e-02 -3.0316192425933190e-02 1.6173774323897136e-03  6.1787915336057986e-02 -3.2265321954263758e-02 2.1587093029712470e-03  6.2314290331372757e-02 -3.3480247383856687e-02 1.3159527813181237e-03  5.9221316311439280e-02 -3.0865879983698167e-02 1.9312467204478697e-03  6.0346416391366245e-02 -3.2864169401172386e-02 2.3345377015351510e-03  6.0942632907997910e-02 -3.3955236191180335e-02 1.6358387387754012e-03  5.7740103898811047e-02 -3.1274935703802048e-02 2.2363616240692200e-03  5.8904761785923222e-02 -3.3321484325835933e-02 2.5148586326303982e-03  5.9564196807137162e-02 -3.4272756485059203e-02 1.9574548579297272e-03  5.6207661667898139e-02 -3.1584898745486027e-02 2.5537734869857964e-03  5.7392175187413845e-02 -3.3667222271016234e-02 2.7122263926567577e-03  5.8110832866214594e-02 -3.4458437773674251e-02 2.3002395874144790e-03  5.4693066734785023e-02 -3.1783333039073318e-02 2.9497052678882610e-03  5.5908504246533069e-02 -3.3868920499599650e-02 3.0021996648599246e-03  5.6709721932163157e-02 -3.4477218950393032e-02 2.7519151275818611e-03  5.3313886403577836e-02 -3.1832959905440134e-02 3.5608913438035083e-03  5.4606530194715432e-02 -3.3861144114416229e-02 3.5346475054618062e-03  5.5479662923228243e-02 -3.4283953282229787e-02 3.4376582307876330e-03  6.4111108289685956e-02 -3.4030875311073149e-02 -2.1112892673966641e-04  6.2788306102845762e-02 -3.0850151036639514e-02 1.7621916215652757e-04  6.1297961468745436e-02 -3.1423709527518537e-02 6.8956139085315160e-04  6.2843674000450198e-02 -3.4574908113014835e-02 3.1391563089314237e-04  5.9892635996856534e-02 -3.1799178901253840e-02 1.1600911246468692e-03  6.1629559470835538e-02 -3.4916218423961941e-02 8.1007074695716938e-04  5.8502518817365054e-02 -3.2018723429961350e-02 1.6129176765006996e-03  6.0411262619211356e-02 -3.5082129334272745e-02 1.2994005281080497e-03  5.7053798890100864e-02 -3.2121574810646925e-02 2.0759605594882938e-03  5.9116225414358466e-02 -3.5087840700389165e-02 1.8101343512754006e-03  5.5634800119178172e-02 -3.2092899343640464e-02 2.6326888675798077e-03  5.7873332097231257e-02 -3.4907540062679349e-02 2.4321982854095116e-03  5.4336789841613262e-02 -3.1917726611823898e-02 3.4038858785859333e-03  5.6784223590265241e-02 -3.4525168017646414e-02 3.2819746058077560e-03  5.6989901200064294e-02 -2.1867010642440947e-02 2.9251522483137861e-03  5.7946695692119292e-02 -2.3039374042701084e-02 2.3025665389094113e-03  5.6198869246884608e-02 -2.3754119413641504e-02 2.5430607927566865e-03  5.5255714467087727e-02 -2.2665585618985629e-02 3.0945952386211488e-03  5.4562251773756676e-02 -2.4366716543716513e-02 2.7647676468031375e-03  5.3631325118686977e-02 -2.3362087245026111e-02 3.2503496482121372e-03  5.2978249006057639e-02 -2.4896802746614349e-02 2.9782482139333985e-03  5.2056692307873735e-02 -2.3987901046467246e-02 3.4027361408772595e-03  5.1394824531062672e-02 -2.5381153674936274e-02 3.1954725142632639e-03  5.0486610287275850e-02 -2.4575384599699508e-02 3.5595664110785528e-03  4.9781169242844606e-02 -2.5852074575773099e-02 3.4295199285001676e-03  4.8889552256421283e-02 -2.5160612786240703e-02 3.7374688523147495e-03  4.8216615321448032e-02 -2.6288517477809401e-02 3.7630471569413703e-03  4.7308250984208301e-02 -2.5751208620612722e-02 4.0050157893041184e-03  5.8455581456495764e-02 -2.4737527043187130e-02 6.3607373445891844e-03  5.6028525220561932e-02 -2.1523030560825204e-02 7.1147992817703603e-03  5.6357895447721205e-02 -2.1427881104184181e-02 6.3121348236248320e-03  5.4892869677044133e-02 -2.2435327621986502e-02 6.0315595009963179e-03  5.4615846458752011e-02 -2.2397750281993638e-02 6.7269573711346564e-03  5.7027847886697652e-02 -2.5549205373803417e-02 5.9974957322311501e-03  5.3496681767016344e-02 -2.3312527347474896e-02 5.7509680989519694e-03  5.3257465591971899e-02 -2.3144672656317696e-02 6.3531323482383184e-03  5.5637817358320990e-02 -2.6238002585410758e-02 5.6436124937064586e-03  5.2135168940116473e-02 -2.4101163312259248e-02 5.4721133155283402e-03  5.4256507426869716e-02 -2.6832021527537976e-02 5.3002019359001621e-03  5.0763101689000473e-02 -2.4839413290912406e-02 5.1966507697609630e-03  5.2841032122556253e-02 -2.7358268967535869e-02 4.9653921406495475e-03  4.9400879649964320e-02 -2.5550147007559754e-02 4.9642781539290864e-03  5.1421144470549580e-02 -2.7818963094169053e-02 4.6813053152724802e-03  4.8046992689601276e-02 -2.6274093760082950e-02 4.9035243086087048e-03  5.0148329662858079e-02 -2.8125207761803352e-02 4.5397565848405421e-03  4.6705070055257571e-02 -2.2563957481302521e-02 6.3896529837871247e-03  5.9580665054928802e-02 -2.5775787213527468e-02 -1.4031142634679716e-03  5.8036909424201588e-02 -2.3696079240567901e-02 -3.9683800871256474e-04  5.7422380399339258e-02 -2.2847444043824439e-02 -1.4630744245936677e-03  5.6013321402602220e-02 -2.2681810109696953e-02 -1.0255630758487927e-03  5.6439567460084480e-02 -2.3797674982784827e-02 8.1351492435286139e-05  5.8146801776429856e-02 -2.5799436219834920e-02 -7.6956085459485275e-04  5.4765495678554522e-02 -2.2473792093804776e-02 -6.4045744858762862e-04  5.4991904372342679e-02 -2.3823552794481073e-02 5.0343601156340140e-04  5.6865511289821959e-02 -2.5721753431187225e-02 -2.2564770842657748e-04  5.3597158674156299e-02 -2.2235294014529838e-02 -2.7731489209576002e-04  5.3612021969582695e-02 -2.3787198229143026e-02 8.9868971086432177e-04  5.5646315997717688e-02 -2.5559408997679108e-02 2.7722019746795448e-04  5.2442498115856891e-02 -2.1972381225600954e-02 8.4257295752219362e-05  5.2231188825619682e-02 -2.3707974836223996e-02 1.2902108553101950e-03  5.4416694633724207e-02 -2.5327629039508991e-02 7.7297260185295183e-04  5.1244565239684202e-02 -2.1694873248050157e-02 4.5855683975608221e-04  5.0810439702634561e-02 -2.3607797739348926e-02 1.6905850204157371e-03  5.3109109599668955e-02 -2.5048703339666644e-02 1.2833549491974411e-03  5.0005643361669579e-02 -2.1392765165193200e-02 8.4076822882127235e-04  4.9431255357045255e-02 -2.3461937673958946e-02 2.1377580192727527e-03  5.1868537172513045e-02 -2.4693490600243423e-02 1.8327059471186643e-03  4.3479417961219992e-02 -1.8547471796224818e-02 7.2642780259895264e-03  4.5116058496792677e-02 -2.0597722384851459e-02 6.4164019124891281e-03  4.2490934766451049e-02 -1.8275899581724209e-02 6.9617947566796437e-03  4.6308086516871655e-02 -1.9894037248733495e-02 6.6899136761382465e-03  4.1195322415345133e-02 -1.9192176824085243e-02 6.7817168930258487e-03  4.2228134747080238e-02 -1.9358324743019871e-02 7.0502905992445601e-03  4.3817680370321958e-02 -2.1433380799085751e-02 6.3151655544214707e-03  5.6542108460785653e-02 -2.1624424741997474e-02 5.3894195109885411e-04  5.5809816757975736e-02 -2.0934671988977929e-02 -3.0868820924562337e-04  5.4258127583833332e-02 -2.0891310682590657e-02 -1.2973187187191608e-06  5.4864294157841928e-02 -2.1835003210865945e-02 8.9990399565153265e-04  5.2858361731490215e-02 -2.0825765104037153e-02 2.8832274603037217e-04  5.3317003976774323e-02 -2.1990136944873680e-02 1.2183200176838849e-03  5.1538779523173900e-02 -2.0744227115514803e-02 5.6807694783202059e-04  5.1846536527531954e-02 -2.2107030965763459e-02 1.5206869907590248e-03  5.0238374161117511e-02 -2.0658384544552415e-02 8.4953605535517120e-04  5.0390438948868722e-02 -2.2204442880240878e-02 1.8218861599242986e-03  4.8905174346145601e-02 -2.0574624397147422e-02 1.1400639722367683e-03  4