<?xml version="1.0"?>
<VTKFile type="UnstructuredGrid"  version="0.1"  >
<UnstructuredGrid>
<Piece  NumberOfPoints="997" NumberOfCells="4323">
<Points>
<DataArray  type="Float64"  NumberOfComponents="3"  format="ascii">4.993283683593704 1.472548114457358 3.543505878340805  4.909063684707703 1.414478745310096 3.450508335155616  4.853068316176036 1.47563817048588 3.578937226236635  4.902612084868541 1.468473936384188 3.42062816584029  4.9155248118881 1.36050659706965 3.480374428385462  4.999102514985604 1.416913238540713 3.574449787616349  4.859351300090709 1.41999648301774 3.610721664877022  4.865643574429752 1.36437997671261 3.642495312665719  5.004916998585844 1.361313525184234 3.605371618035668  4.92199292505489 1.306574654451077 3.510216162906475  4.928468762876191 1.252663187744085 3.540027856680713  5.010738345879608 1.305735503617145 3.636259630882622  4.87194410777092 1.308806467172365 3.674225849076081  4.878260012216465 1.253240376118202 3.705899304212136  5.016578052654402 1.250175827139156 3.667090599737562  4.934953891227254 1.198770498909557 3.569787968003235  4.884598880223742 1.19768853631513 3.737484226492301  5.022450006436156 1.194630608855595 3.697844959501749  4.941457475053717 1.144889421628005 3.599476817362736  6.459577792625137 1.352155949482453 2.900788914255584  6.361210316713238 1.384655763802969 2.984114067413468  6.36697995706405 1.312636968810692 2.860978311603914  6.37679725240938 1.260399001652022 2.889875911290594  6.369920431328125 1.333906897440869 3.014325003085697  6.46944780553941 1.300172910644662 2.93009987976981  6.386741444523509 1.208154381977455 2.918721938214331  6.378715232082034 1.283145568083951 3.044495315603618  6.479425929070207 1.248191724544279 2.959351843095224  6.396741268743714 1.155910002064756 2.94754124245251  6.387554114191564 1.232379141552277 3.074641504694096  6.489454088384795 1.196215481148303 2.988573776607004  6.406746144192767 1.103670520176358 2.976354196504694  6.396402853624259 1.18161199857406 3.104777585410097  6.49949151210294 1.1442476707045 3.017785268414666  6.416706557182025 1.051442889900132 3.005184326198589  6.405227677041173 1.130848152026196 3.134922412052431  6.509497742357547 1.092297866279601 3.047006523669568  6.426556945557763 0.9992371396151714 3.03406409162169  6.413989183034466 1.080096511673598 3.165111378252042  6.519411052905534 1.040381732206743 3.076269296723384  4.680102075918017 1.051658348921923 2.71859553639236  4.802975734908745 1.08318651267892 2.754090686589028  4.738830191058629 1.124524099431383 2.862993432204408  4.746618232273208 1.073084713777428 2.890257275480963  4.809932958583091 1.029119358074707 2.777671553987671  4.687782692303051 0.9973572700489221 2.741051065854985  4.754476736095483 1.02168411383308 2.917544750416081  4.816915723050887 0.975070367368573 2.801273868867032  4.695535053308907 0.9430599691986752 2.763509227925448  4.762363583659877 0.9703050156166292 2.944825035751215  4.823911546276761 0.9210303555616628 2.82487594553066  4.703312495378058 0.8887648500417146 2.785964952482801  4.770251871723918 0.9189382919576861 2.972087006599022  4.830914772240143 0.8669951873710252 2.848470950943216  5.955533382714856 0.9165560782793514 2.40269543838987  5.845068522145448 0.8937131031120636 2.269261518336548  5.817635271459257 0.90457862733879 2.430490781769391  5.948859496929239 0.9780955370608641 2.397344394066289  5.811124436627455 0.9658428243673466 2.424306964380847  5.824142764139371 0.8433175570428377 2.436674267051201  5.962212307824002 0.855018768461416 2.40804701126277  5.851783748433599 0.8316078114161106 2.268959830062721  5.830643743109341 0.7820630961901792 2.442867258638785  5.968907822858143 0.7934887654461745 2.413416608381823  5.858510983036839 0.769533088103412 2.268672929942057  5.837150079570955 0.7208239328033123 2.449078313865797  5.931473154904922 0.99171976790899 2.538100479544052  6.079010469353864 1.005244146722975 2.49902827544402  6.072293978928005 1.066284093086069 2.489522071114206  5.925245580631906 1.05223663271548 2.526705907039303  5.937695815690844 0.931208324292057 2.54948025867229  6.085743409528281 0.9441820293021717 2.508518298592723  5.943919953186545 0.8707082986158436 2.560858423194858  6.092480685361202 0.8831102805967761 2.518010368767447  5.950148923407863 0.8102307384708788 2.57224299266083  6.099211944468125 0.8220267041993053 2.527517229946587  5.975642029731829 0.731972379702965 2.418805402249015  5.956393414582656 0.7497594251976251 2.583643390922971  6.105963057412709 0.7609293187201368 2.537051675339704  5.355087835250101 1.485707127186717 3.371309182754758  5.405190149822639 1.420765017535311 3.246170556434023  5.508055343992956 1.475432542368829 3.328056431514578  5.512746510016086 1.422429312912982 3.357652809612957  5.409433040592582 1.368508151225227 3.275300972755077  5.359710067103734 1.431852201806816 3.400773592089601  5.364263871206574 1.378003842111564 3.430233905497482  5.413595493457856 1.316257990627231 3.304427805973766  5.517368291925361 1.369429418293356 3.387254479255842  5.368786773716559 1.324167798135344 3.459678855678164  5.417720790643353 1.264014734309139 3.333541780897936  5.521958220687521 1.316431015083032 3.41684818357909  5.373308908836392 1.270338572511933 3.489097008603978  5.421842589968976 1.21177497669125 3.362633859089506  5.526546827925221 1.263429907509508 3.446420016289366  5.377860574220583 1.216510707990865 3.518472003932076  5.425996273461631 1.159532532119985 3.391691370087039  5.470340267864888 1.482227101614623 3.476990320271536  5.475293766051038 1.427368828831248 3.507214482672278  5.314764487597004 1.236320136318191 2.933833097832489  5.290310583825518 1.161780168637321 2.799566698359138  5.410136285370098 1.195180542592574 2.846746591432562  5.41369333107356 1.142191856741949 2.873735070855588  5.294272552835145 1.108055994202013 2.826030052286149  5.318185990896565 1.18472432344039 2.962553008670677  5.417173635848249 1.089211695612135 2.90072344237411  5.298165547133574 1.054363774721046 2.852491938185342  5.321522245708255 1.133138978570191 2.991262704915835  5.420621834476831 1.0362377115905 2.927702686471406  5.302027014253705 1.000692099017705 2.878942206687997  5.324821253115647 1.081564120190236 3.019958495110374  5.424065017617845 0.9832702900647659 2.954668756864199  5.30588275387072 0.9470373754858442 2.905374845893461  5.328115428078829 1.029997851968447 3.048636010692895  5.427525378193335 0.9303142009653944 2.981622464547006  5.309755674983466 0.8934077715599162 2.931783873460369  5.331435799295676 0.9784408986812685 3.077294083500983  5.431031579573434 0.8773750045913828 3.008564475795295  5.313669064754523 0.8398067492526617 2.958169739983474  5.334825527926932 0.9269048697643242 3.105935155346355  6.020892663022329 1.150709850940701 2.624950416556045  6.157217477744318 1.158430655284428 2.603805227505686  6.118098407504039 1.209239707996947 2.740353431196583  6.126877312481215 1.154036588324364 2.764718624284445  6.165642877662757 1.099274471744529 2.621256630702037  6.027499666256699 1.091932860452406 2.642153031955573  6.135768204049806 1.098795195799468 2.789059457838837  6.174133167051917 1.040094995318916 2.638666301774936  6.03409169320072 1.033120331455673 2.659344498455845  6.14470704117678 1.043524319503962 2.813389315607336  6.182664770490759 0.9809199790292729 2.65605580710055  6.040681942695593 0.9742914879016993 2.676522598596491  6.153646675195961 0.9882375055020218 2.837727239340427  6.191193495399675 0.9217534640396172 2.673444953281999  6.047281915812393 0.9154593928201499 2.693704660357695  6.16254611742557 0.9329395246979191 2.862096517050816  6.199682415734183 0.8625942130817084 2.690853837658523  6.053912683238826 0.8566292808327243 2.710904686795764  6.171358538163366 0.8776283766826648 2.886519294958319  6.208115678167009 0.803434461790731 2.708311938316898  6.060609952378864 0.7977907670590323 2.72812483653708  5.079144831425212 1.242836892785847 2.979376482655608  5.19657460669226 1.205136879699496 2.893621354653873  5.196809640740843 1.283844513402564 3.032347726320314  5.201147014349834 1.232622322481772 3.061414958933169  5.200854385645684 1.15298452021814 2.921919826474351  5.084213763910044 1.191630087071488 3.008333156998078  5.205427185663412 1.181427729585489 3.090468855199796  5.205079133040891 1.10087194913623 2.95021640725738  5.089255366461892 1.140454630811512 3.037285611258725  5.209680863632459 1.130254933156701 3.11950487878988  5.20928032715304 1.048782428651795 2.97849934358998  5.094284235676483 1.089310346652479 3.066220687688193  5.213931946898006 1.079097235453126 3.148517761972737  5.213477720702547 0.9967094604445967 3.006761133801142  5.099313450113469 1.038186749127675 3.095130477519609  5.218203662747469 1.02795234581163 3.177501232729456  5.217689205134745 0.9446550798051342 3.034996328612918  5.104357837514248 0.9870817084551979 3.124006847710879  5.222518156209332 0.9768217623620219 3.206450284326603  5.221938505234044 0.8926240722553369 3.063199269928722  5.109448586936001 0.9359951398662376 3.152842974783436  5.341436245777747 1.313528095051713 3.065080408679424  5.484346514861119 1.316893898814649 3.054912610629479  5.454073567378616 1.370203948538444 3.14859262538834  5.457970917204034 1.318971596686899 3.178006651818682  5.487885509333434 1.266250114447318 3.084896894412932  5.344979290641817 1.262550350892606 3.094425575167965  5.46178038386244 1.267737154324003 3.20741885646017  5.491332988193232 1.215597119288318 3.114873091140641  5.348434840924842 1.211579167731764 3.123759071813501  5.465550245173099 1.216503062963355 3.236821230744219  5.494739328437046 1.164942092540967 3.144839037605365  5.35185118244713 1.160617807025303 3.153077604073391  5.469315442083917 1.165267661665999 3.266205977563092  5.498141937977934 1.114284898327781 3.174789281388889  5.355262077999092 1.109662634374489 3.18237646633477  5.473111524152931 1.114026096187025 3.295565787494847  5.501578895992736 1.063623737857214 3.204720852204093  5
[...]
<PointData  Vectors="f_16"> 
<DataArray  type="Float64"  Name="f_16"  NumberOfComponents="3" format="ascii">5.9389840610746786e-02 -2.3348012746459597e-02 1.7692674750962104e-02  6.0080941810563462e-02 -2.3186750135577354e-02 1.7089996412015848e-02  6.0298725147989049e-02 -2.4092524406972120e-02 1.7891229733435664e-02  5.9797172529095936e-02 -2.2838554442932386e-02 1.7365771850779060e-02  6.0349878893237507e-02 -2.3509471000826301e-02 1.6829927635613983e-02  5.9671084886432156e-02 -2.3666005555834691e-02 1.7467045852213165e-02  6.0573714805249423e-02 -2.4415513257070365e-02 1.7678112458490911e-02  6.0836318777428788e-02 -2.4706942102713590e-02 1.7465633411285379e-02  5.9944014932726268e-02 -2.3957260493434742e-02 1.7244899737608864e-02  6.0609561404059459e-02 -2.3810521339410449e-02 1.6576032901364536e-02  6.0864672125687552e-02 -2.4091545298256543e-02 1.6318497893214119e-02  6.0213266159570934e-02 -2.4223866145661466e-02 1.7016638622982229e-02  6.1093824238154223e-02 -2.4968953294990746e-02 1.7244931758470167e-02  6.1353362201256027e-02 -2.5204485115284721e-02 1.7010968604856461e-02  6.0483960940764712e-02 -2.4468829690966785e-02 1.6776730914006058e-02  6.1121136112294687e-02 -2.4355872262954093e-02 1.6048935327776213e-02  6.1620444588133837e-02 -2.5413795560279999e-02 1.6756985706786416e-02  6.0760276692883079e-02 -2.4694016513536102e-02 1.6518893063710384e-02  6.1384046095325058e-02 -2.4605280879943427e-02 1.5758620411762261e-02  4.8862412523806346e-02 -1.6078744208435695e-02 1.2717981780303807e-02  4.9500840671375737e-02 -1.6571752742953035e-02 1.3464926513844984e-02  4.9724509176610497e-02 -1.6337656361243590e-02 1.2552379364952430e-02  5.0041705487921223e-02 -1.6528714206101833e-02 1.2408406034745686e-02  4.9827000518600034e-02 -1.6799669865714323e-02 1.3313843264089303e-02  4.9184972000805058e-02 -1.6267433450358297e-02 1.2573603549984092e-02  5.0332811549399475e-02 -1.6724737873645267e-02 1.2291025091365843e-02  5.0134187393280280e-02 -1.7020926207555843e-02 1.3183579824619592e-02  4.9484318538027761e-02 -1.6460752802252419e-02 1.2458120747748923e-02  5.0611478374288699e-02 -1.6928393661459491e-02 1.2188461979913840e-02  5.0430185968194728e-02 -1.7241008954064174e-02 1.3064657887251639e-02  4.9772169747279528e-02 -1.6661964198634839e-02 1.2358735407633008e-02  5.0889051374108714e-02 -1.7142152287063273e-02 1.2091062754442194e-02  5.0723187963844209e-02 -1.7464170920704788e-02 1.2948261288016332e-02  5.0058008744472603e-02 -1.6874240314041312e-02 1.2265679526782763e-02  5.1176151343003247e-02 -1.7368492083374203e-02 1.1991021786918226e-02  5.1020971427109707e-02 -1.7694609004674004e-02 1.2825728333277142e-02  5.0351459818191585e-02 -1.7101340610801596e-02 1.2170700361611973e-02  5.1484544398642793e-02 -1.7610053571400910e-02 1.1882168930372560e-02  5.1329611720862464e-02 -1.7938017451729654e-02 1.2688706475198687e-02  5.0663788514856513e-02 -1.7345760409323650e-02 1.2064988427315933e-02  6.2888148278036238e-02 -1.9323296256781079e-02 1.1469203762373106e-02  6.1929595440488698e-02 -1.9199428530464271e-02 1.1838355830083629e-02  6.2102378237354088e-02 -1.9953216441856356e-02 1.2725799464075290e-02  6.2322281770492156e-02 -2.0233105934266478e-02 1.2383029444095986e-02  6.2120225056889466e-02 -1.9414607330336696e-02 1.1509660406028022e-02  6.3083583470496085e-02 -1.9533744054484922e-02 1.1138520444663088e-02  6.2524554477521643e-02 -2.0521988562732518e-02 1.2076269929226294e-02  6.2303148073834455e-02 -1.9655619061939026e-02 1.1219868785792217e-02  6.3261589067891075e-02 -1.9768753220498390e-02 1.0852039994171834e-02  6.2718303693755501e-02 -2.0822736704233080e-02 1.1790427022799050e-02  6.2482304582105061e-02 -1.9920690972015768e-02 1.0954426306424240e-02  6.3433186292990038e-02 -2.0028661005034164e-02 1.0588989176089067e-02  6.2912504549715462e-02 -2.1139545754044548e-02 1.1513282867993940e-02  6.2661012980355563e-02 -2.0210470940050202e-02 1.0701094070472575e-02  5.4792104333411328e-02 -1.7328111728161382e-02 9.6681527171382682e-03  5.5775804079225479e-02 -1.7568518037820710e-02 9.1070680209266452e-03  5.5782830225200121e-02 -1.7489606592588403e-02 9.7024131678045064e-03  5.4612387711275336e-02 -1.7167862414688578e-02 9.6451425221000444e-03  5.5621892612483043e-02 -1.7327795208847450e-02 9.7035699434013210e-03  5.5944042166119638e-02 -1.7680629858637251e-02 9.7070468338498299e-03  5.4970707706822955e-02 -1.7514533589378673e-02 9.6946427084344186e-03  5.5944743586950785e-02 -1.7768752701592269e-02 9.1938075536529829e-03  5.6100524373534501e-02 -1.7898038728628163e-02 9.7127337769749317e-03  5.5141556087960779e-02 -1.7724311088008395e-02 9.7224756978131193e-03  5.6107327222157805e-02 -1.7996144238697050e-02 9.2825672844684768e-03  5.6252780350040943e-02 -1.8144858285025718e-02 9.7151742277812748e-03  5.4597952036769086e-02 -1.7275164400605787e-02 1.0286560783185867e-02  5.3501908239315797e-02 -1.6995989816576948e-02 1.0133644435424260e-02  5.3296043069160789e-02 -1.6852449966648902e-02 1.0162543002959032e-02  5.4423280313326876e-02 -1.7125916351777251e-02 1.0342285812132720e-02  5.4777932547096120e-02 -1.7448960651187711e-02 1.0242384016617824e-02  5.3710173488953260e-02 -1.7160510807973428e-02 1.0115805763485478e-02  5.4955566613283470e-02 -1.7646024779011449e-02 1.0203682744397403e-02  5.3915259980507661e-02 -1.7344302922484792e-02 1.0102428460332801e-02  5.5125106635441436e-02 -1.7864463057438707e-02 1.0164382155361341e-02  5.4112401559810751e-02 -1.7546444259834097e-02 1.0087812526485534e-02  5.5297720789969612e-02 -1.7960174961718305e-02 9.7499114135342901e-03  5.5282689582506379e-02 -1.8088320831190729e-02 1.0116390707547300e-02  5.4296492828770637e-02 -1.7775582779798169e-02 1.0067505363342893e-02  5.6841926972339224e-02 -2.1009188832110531e-02 1.6957523916442455e-02  5.6713347127100841e-02 -2.0254164996538961e-02 1.6086241440057245e-02  5.5830947298751127e-02 -2.0352649187880864e-02 1.6606228868347311e-02  5.6073033636317791e-02 -2.0684135257500635e-02 1.6385348806705051e-02  5.6928243772730508e-02 -2.0586413344856565e-02 1.5828297182193654e-02  5.7090548242947209e-02 -2.1341996117639352e-02 1.6716365960499233e-02  5.7345782145477704e-02 -2.1652128310231104e-02 1.6485215669463961e-02  5.7154338137165153e-02 -2.0899895542226179e-02 1.5584437064336900e-02  5.6322043141611530e-02 -2.0991492971810539e-02 1.6170681227715308e-02  5.7603154944333226e-02 -2.1943913845047971e-02 1.6257675198209139e-02  5.7384752429520326e-02 -2.1198998357338197e-02 1.5347168605955345e-02  5.6574429470555881e-02 -2.1279758296790373e-02 1.5957641240658852e-02  5.7859877231779003e-02 -2.2220507547754929e-02 1.6027392142720771e-02  5.7614618290001841e-02 -2.1488643528243846e-02 1.5108418425058666e-02  5.6825978061769082e-02 -2.1552204866899426e-02 1.5741034625051858e-02  5.8113374329846958e-02 -2.2483782531024250e-02 1.5787492172982011e-02  5.7839210837855266e-02 -2.1772113990158690e-02 1.4859537673541756e-02  5.6219635147964755e-02 -2.1311524243231014e-02 1.7168321187162484e-02  5.6495695201773409e-02 -2.1612295544490609e-02 1.6971193372381680e-02  5.7997900426130670e-02 -1.8896657625445627e-02 1.3586783024415891e-02  5.8458026214342672e-02 -1.8391133357752904e-02 1.2416161648739038e-02  5.7522912098306414e-02 -1.8378046278570787e-02 1.2826415087617279e-02  5.7659318233328170e-02 -1.8625213086977972e-02 1.2558290467224346e-02  5.8596539037545227e-02 -1.8615879610502900e-02 1.2137890925080557e-02  5.8148338561134834e-02 -1.9180711436086254e-02 1.3291504275927795e-02  5.7811052011603685e-02 -1.8881789635872403e-02 1.2324961570085309e-02  5.8748567407772123e-02 -1.8861719423008426e-02 1.1897857423423801e-02  5.8314501269298297e-02 -1.9466644610985694e-02 1.3032086551114116e-02  5.7970323462891535e-02 -1.9152818967605834e-02 1.2112445417834929e-02  5.8908193441574316e-02 -1.9129314291618280e-02 1.1680530274705581e-02  5.8488224552237414e-02 -1.9760992778747141e-02 1.2793016365151351e-02  5.8130460026048485e-02 -1.9442381288413642e-02 1.1909321547191274e-02  5.9070001440738089e-02 -1.9421303062834322e-02 1.1474853886252018e-02  5.8662705600373871e-02 -2.0069080737590731e-02 1.2561803271895055e-02  5.8284947643985827e-02 -1.9755492785724922e-02 1.1706416066313939e-02  5.9229124125041686e-02 -1.9742003545760726e-02 1.1272334595818093e-02  5.8831057439368242e-02 -2.0397775610925997e-02 1.2327671107414602e-02  5.8426439333809213e-02 -2.0098743000317019e-02 1.1496617429917914e-02  5.9379382746611302e-02 -2.0092080989137194e-02 1.1064836925155880e-02  5.8985800222216195e-02 -2.0757345978435263e-02 1.2083019363641494e-02  5.3267741051643808e-02 -1.6955580991851443e-02 1.1116753013222114e-02  5.2147660039370949e-02 -1.6641959679364365e-02 1.0944997208462979e-02  5.2141516585227213e-02 -1.6901409635825575e-02 1.1909456570488719e-02  5.2398064104664348e-02 -1.7099244284947357e-02 1.1765848971153403e-02  5.2384419329136359e-02 -1.6795601152208260e-02 1.0849336388237476e-02  5.3460306616465031e-02 -1.7117513444945477e-02 1.1006017255955326e-02  5.2636282787444116e-02 -1.7298287046202308e-02 1.1645698600469590e-02  5.2618360926087633e-02 -1.6959787045724595e-02 1.0776191288353949e-02  5.3660288873317696e-02 -1.7291666914725161e-02 1.0913193638144907e-02  5.2865999629046936e-02 -1.7504164722306939e-02 1.1537742468774696e-02  5.2847098298967415e-02 -1.7140811325210108e-02 1.0714969804975895e-02  5.3864845602639752e-02 -1.7480534102605361e-02 1.0831644902015863e-02  5.3094819410827832e-02 -1.7717577146886258e-02 1.1432558927069580e-02  5.3074710153110487e-02 -1.7338177956845828e-02 1.0658204282386560e-02  5.4066219346780249e-02 -1.7683940952399318e-02 1.0754520634938801e-02  5.3329194477403433e-02 -1.7938245789070918e-02 1.1322518147352627e-02  5.3303539840627051e-02 -1.7548205131844841e-02 1.0599624894743814e-02  5.4257310269599755e-02 -1.7900204449788057e-02 1.0676316638333098e-02  5.3576239712573553e-02 -1.8165889700648894e-02 1.1204003992473514e-02  5.3530451992237049e-02 -1.7761302310526892e-02 1.0530908248819758e-02  5.4426830354157671e-02 -1.8127668208915655e-02 1.0588956571103106e-02  5.9455233312063836e-02 -1.9633125396361199e-02 1.3980181748167907e-02  5.8877140449885852e-02 -1.8942438839992248e-02 1.3229271665214841e-02  5.8562331166545106e-02 -1.9631406190283526e-02 1.4441953864200744e-02  5.8745229091199586e-02 -1.9938792500790413e-02 1.4127166560123288e-02  5.9037528161879939e-02 -1.9207121193737884e-02 1.2920532801766135e-02  5.9647120109871506e-02 -1.9928123629163342e-02 1.3649728305793262e-02  5.8935304307121829e-02 -2.0244303977297085e-02 1.3842711951051575e-02  5.9208023792591088e-02 -1.9484399830562816e-02 1.2649683020084516e-02  5.9842159786046990e-02 -2.0226239562229159e-02 1.3354209475132795e-02  5.9129046708542139e-02 -2.0552247548337427e-02 1.3577075221754536e-02  5.9383480970959732e-02 -1.9776541442043952e-02 1.2400723814934055e-02  6.0037895650526106e-02 -2.0532759826513380e-02 1.3079655014743938e-02  5.9322751287408278e-02 -2.0868516022706136e-02 1.3318153897855433e-02  5.9560034230901976e-02 -2.0087220293375618e-02 1.2162287279817909e-02  6.0233189696096867e-02 -2.0852545596983015e-02 1.2814608514993830e-02  5.9513094456365073e-02 -2.1200125288761230e-02 1.3054182211341912e-02  5.9734047041437990e-02 -2.0422362634037267e-02 1.1925171526074136e-02  6.0426052740031648e-02 -2.1192398942110995e-02 1.2548016655751710e-02  5.9698706865798180e-02 -2.1556656863142214e-02 1.2772459520370543e-02  5.9899034962220994e-02 -2.0790038505852974e-02 1.1682249594594957e-02  6.0611138378643528e-02 -2.1560266798720602e-02 1.2267872359879082e-02  5.7522780755198996e-02 -1.9477881360594192e-02 1.4702744548333665e-02  5.6542515274658804e-02 -1.9138429742423031e-02 1.4588989297126098e-02  5.6554330258994964e-02 -1.9647001406491015e-02 1.5350809646213314e-02  5.6744977895418401e-02 -1.9978041596686667e-02 1.5089857496396257e-02  5.6711703828235885e-02 -1.9462062256832013e-02 1.4329241893832256e-02  5.7695493256617082e-02 -1.9796733131598892e-02 1.4414966611138790e-02  5.6949605004960970e-02 -2.0291305886212599e-02 1.4847231788518996e-02  5.6895975517225840e-02 -1.9770460295161774e-02 1.4094000558353031e-02  5.7882693416859289e-02 -2.0106336807582992e-02 1.4153198192119163e-02  5.7159655793539266e-02 -2.0593232080565464e-02 1.4613952362000643e-02  5.7087240069284118e-02 -2.0072546356901175e-02 1.3871381035582941e-02  5.8076543414868911e-02 -2.0412559696267232e-02 1.3906387795105609e-02  5.7369245475597422e-02 -2.0890183722099491e-02 1.4380814686326512e-02  5.7277978369598637e-02 -2.0375397327970397e-02 1.3650467410980938e-02  5.8270532835476840e-02 -2.0721901578844924e-02 1.3663506334436580e-02  5.7572105722004850e-02 -2.1187514397380952e-02 1.4137435604979320e-02  5.7460551908801116e-02 -2.0685391654455106e-02 1.3419887911187029e-02  5.8458124566408677e-02 -2.1041265086822084e-02 1.3413485150539837e-02  5.7761905079684032e-02 -2.1490399748874484e-02 1.3872297316991789e-02  5.7625519582748426e-02 -2.1009171441829962e-02 1.3167389229091856e-02  5.8631724537513932e-02 -2.1380272436861022e-02 1.3143989747716505e-02  6.2428243645039530e-02 -1.8609615933811729e-02 1.0627176890572011e-02  6.2584211415057309e-02 -1.8748231885762499e-02 1.0355198514469746e-02  6.2739197710162439e-02 -1.8933557906384967e-02 1.0120124997912273e-02  6.2894051516221988e-02 -1.9158263494391228e-02 9.9054200975647703e-03  6.3048653232787966e-02 -1.9418836676259821e-02 9.7013036493352519e-03  5.7745759438515662e-02 -1.7951967725131742e-02 1.1794648418559659e-02  5.7869053306222253e-02 -1.8133168092148686e-02 1.1557891004109398e-02  5.8009038091906932e-02 -1.8344296044893172e-02 1.1357705466893877e-02  5.8157829038336523e-02 -1.8580907361320665e-02 1.1179042465464892e-02  5.8309317041270049e-02 -1.8843518537558501e-02 1.1011106950762125e-02  5.8457201722879888e-02 -1.9135140370864966e-02 1.0846575273546719e-02  5.8591425347344323e-02 -1.9467356712054681e-02 1.0682783578853583e-02  5.4259051886114573e-02 -1.7004497485821640e-02 1.0414878573360277e-02  5.3098288275991806e-02 -1.6734370215001963e-02 1.0209280948486513e-02  5.6120617649600933e-02 -1.8681018971669919e-02 1.3971927375796634e-02  5.5559738837303828e-02 -1.9124359913580243e-02 1.4962785716706575e-02  5.5750963493245737e-02 -1.9453445131324399e-02 1.4731228733280970e-02  5.6280138765557611e-02 -1.8982917094534302e-02 1.3720520939509344e-02  5.5953774181151897e-02 -1.9761120021884418e-02 1.4515568425544884e-02  5.6452768169907096e-02 -1.9273008926935342e-02 1.3496320835149615e-02  5.6161102712804847e-02 -2.0056250306532582e-02 1.4307554054617196e-02  5.6631062536287420e-02 -1.9560265552719350e-02 1.3285823084152132e-02  5.6367203193951873e-02 -2.0345579646783893e-02 1.4098327770876516e-02  5.6808223685754208e-02 -1.9851514822124217e-02 1.3077835724360051e-02  5.6565994706090743e-02 -2.0634011801517256e-02 1.3877728787744141e-02  5.6977639814295010e-02 -2.0153090925258618e-02 1.2861183704486018e-02  5.6750072000731719e-02 -2.0925450113086400e-02 1.3633509945181378e-02  5.7133991599799323e-02 -2.0470630419181481e-02 1.2624579859395366e-02  5.0577854380310101e-02 -1.6872861886517560e-02 1.3244404409940392e-02  5.0885057817680539e-02 -1.7110307909889256e-02 1.3093142407898604e-02  5.1173201543835860e-02 -1.7339764605625616e-02 1.2960622227064272e-02  5.1450596552790738e-02 -1.7566898768493773e-02 1.2838299253167837e-02  5.1725699318079105e-02 -1.7795922803164679e-02 1.2717245759665746e-02  5.2006563726994422e-02 -1.8030390419095030e-02 1.2588980447236872e-02  5.2301290866759699e-02 -1.8274537624902883e-02 1.2445269797266876e-02  6.0031793496061747e-02 -2.0418231627476989e-02 1.4666877715276444e-02  5.9125758516350276e-02 -2.0441537712255493e-02 1.5189858443604955e-02  5.9343752570861878e-02 -2.0762643819948030e-02 1.4862591692980149e-02  6.0255532652791939e-02 -2.0727849881021849e-02 1.4324483906134590e-02  6.0474322034428735e-02 -2.1035782222002839e-02 1.4012224243078283e-02  5.9560900669888492e-02 -2.1076019525542531e-02 1.4562000628792661e-02  6.0688426615985107e-02 -2.1345318253040778e-02 1.3718357753548002e-02  5.9777250303518617e-02 -2.1387537599339833e-02 1.4278597913083417e-02  6.0900743165514727e-02 -2.1660945059267342e-02 1.3430903744542491e-02  5.9992420915279267e-02 -2.1702620042069062e-02 1.3999767918440950e-02  6.1113144771778517e-02 -2.1989795455064041e-02 1.3138760841909665e-02  6.0205834013479079e-02 -2.2026955571769126e-02 1.3713087813381002e-02  6.1324714702813574e-02 -2.2343283601500560e-02 1.2831091549388570e-02  6.0416062274087849e-02 -2.2363298055528440e-02 1.3403336438880706e-02  5.2937506961074382e-02 -1.7337373338921200e-02 1.2540321672640940e-02  5.1929951394781133e-02 -1.7118886381518289e-02 1.2700912640815966e-02  5.2396349837998922e-02 -1.7552968087426322e-02 1.3511450729564591e-02  5.2655068800630110e-02 -1.7832034309539453e-02 1.3347586646924058e-02  5.2198112135801049e-02 -1.7351263467438319e-02 1.2549376043351081e-02  5.3167130950861945e-02 -1.7583048899348433e-02 1.2381084787060502e-02  5.2902879039610308e-02 -1.8093108358858582e-02 1.3197054717808965e-02  5.2448450102203045e-02 -1.7581057321245021e-02 1.2416143574207719e-02  5.3383394253057874e-02 -1.7819349228201824e-02 1.2243709588365508e-02  5.3144637850630186e-02 -1.8345731490517509e-02 1.3053266142234763e-02  5.2690303529803438e-02 -1.7810005950941600e-02 1.2292280242841418e-02  5.3596244587191873e-02 -1.8055661926675851e-02 1.2116119608788353e-02  5.3384619659496410e-02 -1.8595684414484032e-02 1.2907866426575118e-02  5.2931221644037872e-02 -1.8041571076228658e-02 1.2168722516334447e-02  5.3808170464083573e-02 -1.8296814900736386e-02 1.1988517513737392e-02  5.3626274429778596e-02 -1.8846527323574461e-02 1.2752245290359033e-02  5.3178007721033857e-02 -1.8278208133489748e-02 1.2038264932676051e-02  5.4022112094531304e-02 -1.8543892299370091e-02 1.1851954012504594e-02  5.3873094769858992e-02 -1.9099275048125811e-02 1.2576355312346025e-02  5.3439153023156521e-02 -1.8524661453766425e-02 1.1897656136690343e-02  5.4245634569369733e-02 -1.8793778120205742e-02 1.1696551351006144e-02  6.0682931975197460e-02 -2.3659111202331728e-02 1.7630165571193564e-02  6.0005077319145818e-02 -2.3732424082680750e-02 1.8112225107185347e-02  6.0971788467135545e-02 -2.4019273290226469e-02 1.7375735640835815e-02  6.1234909210896041e-02 -2.4348141760243299e-02 1.7133670624597013e-02  6.1482441501120338e-02 -2.4647789897560883e-02 1.6894164945473130e-02  6.1724642565883212e-02 -2.4921036807424038e-02 1.6647530785176355e-02  6.1970518197377644e-02 -2.5170124972772202e-02 1.6385856741146666e-02  6.2229282588477465e-02 -2.5398461503739461e-02 1.6102153629978699e-02  6.1094111134734064e-02 -2.0015595034007089e-02 1.3486772756259948e-02  6.0292179934806574e-02 -1.9869976131876986e-02 1.3823870842096587e-02  6.0855933873695985e-02 -2.0638641683834554e-02 1.4434024296210986e-02  6.1095256186278528e-02 -2.0954934920754297e-02 1.4088888985830987e-02  6.0505164964335952e-02 -2.0158770151843853e-02 1.3483314782209642e-02  6.1319107210792347e-02 -2.0309744693989332e-02 1.3147558424684111e-02  6.1520668153632316e-02 -2.0609282209842067e-02 1.2845947610820193e-02  6.0708940124070361e-02 -2.0456623496607495e-02 1.3179172825575703e-02  6.1317476005176896e-02 -2.1267046776100251e-02 1.3772645895595327e-02  6.1711987959299497e-02 -2.0918020641666313e-02 1.2565775901595373e-02  6.0907470625658634e-02 -2.0762554103429778e-02 1.2896439953659630e-02  6.1530399471165932e-02 -2.1579892640980956e-02 1.3475060492345887e-02  6.1902380271653235e-02 -2.1239897925425532e-02 1.2294677738276433e-02  6.1104680279442138e-02 -2.1080052669456839e-02 1.2623129236807277e-02  6.1741358778606661e-02 -2.1898407660211706e-02 1.3183867451567617e-02  6.1304583514020440e-02 -2.1416233387415631e-02 1.2348927136626681e-02  6.2102516441592759e-02 -2.1580321511032736e-02 1.2021887891808757e-02  6.1958102793010714e-02 -2.2228691092559441e-02 1.2887394043998976e-02  6.2327675671652122e-02 -2.1946508749355415e-02 1.1738389769540194e-02  6.1510723392221425e-02 -2.1790071444760396e-02 1.2070602868566172e-02  6.2188515830