<?xml version="1.0"?>
<VTKFile type="UnstructuredGrid"  version="0.1"  >
<UnstructuredGrid>
<Piece  NumberOfPoints="987" NumberOfCells="4342">
<Points>
<DataArray  type="Float64"  NumberOfComponents="3"  format="ascii">2.857274006961209 2.897154650663679 3.837235610919816  2.859900085775696 2.769680489418801 3.90766629971775  3.003699485289884 2.795908100102143 3.898981283261265  3.00071358387055 2.829352474525627 3.956250334964079  2.856589821099302 2.798103826263661 3.966826001480557  2.858269373689722 2.930231930738433 3.892775702667103  2.859243205669689 2.963090850117612 3.948337263935005  2.997751248684766 2.862524970123393 4.013501019162925  2.970661497336727 2.941733734300413 3.805232978036947  3.11445703294627 2.851525026546283 3.871402112890002  3.113022688792225 2.889257732794711 3.926330670658063  2.972313988181754 2.979012415471084 3.858105221888468  2.973921394374294 3.016058150756107 3.911020513971242  3.111581873077067 2.926715648089388 3.981302851121221  2.994776177341594 2.895542947656563 4.070675050490751  3.110094864049846 2.964042902806547 4.036250399966455  3.037485104277719 3.052623679266858 3.714879405338707  3.163741044463531 3.055715278804398 3.704365535870997  3.082324273738312 3.155723522484229 3.620614626364137  3.1672428005499 3.098815609723992 3.752177421096534  3.041633667669929 3.092978050232251 3.764288744833563  3.089162560401963 3.198854196640382 3.666480383871189  3.045695164146265 3.133167932617154 3.813800167860077  3.170646746981924 3.141750452549303 3.800146118132023  3.09586961535733 3.241899636525011 3.712462581173241  3.049672209444761 3.173290722842612 3.863342709545708  3.173959613706581 3.184631014774613 3.848176279495837  3.102485842976654 3.284931330079036 3.758513191664669  2.852546197220924 2.163417706152591 4.016400693047211  3.013146307199994 2.153965983201897 4.041715258486888  2.978940329231937 2.269540462565849 4.046912819963094  3.002838820070175 2.144233063714127 4.109946666784899  2.841226754121314 2.156205093582706 4.083330923807986  2.967702013749262 2.269812303696878 4.11541644561627  2.956535543057018 2.270103658732305 4.183724321204283  2.992599871133721 2.134583332602372 4.177977731757879  2.829959610604324 2.149048881945439 4.150094179224385  2.945402354527653 2.270386652073865 4.251861720801688  2.982383347539891 2.124953806887455 4.24586774528689  3.782367906746166 2.231593764874835 4.069131813723079  3.895266940937816 2.151914819545175 4.063756544432291  3.935824938542371 2.304224274723468 4.082743359271871  3.93003373554023 2.300858567932666 4.156539133223884  3.889892028801698 2.138360327547061 4.135277273721413  3.77849965112358 2.22339265774104 4.141377228972964  3.924246078237009 2.297500707438103 4.230040768906014  3.884511844436847 2.124872906167615 4.206544384170043  3.7746506919218 2.215205415255255 4.213364375800927  3.918480174971403 2.294113018763058 4.30327097696728  3.879150098483036 2.11139966493729 4.277579343995393  3.770820013167478 2.207004980784517 4.285105417955224  3.912743729211594 2.290663738620943 4.376288769371676  3.873796415460377 2.097913219833875 4.3484153680642  3.767004218197209 2.198757419271964 4.356636509304375  3.907033444020164 2.287144994041904 4.449132702708466  3.86848748211448 2.08438260288085 4.419064395308509  3.76320162760039 2.190451752747649 4.427965283828066  3.90138617461592 2.283579418477796 4.521810879062366  3.863252262906161 2.070789140792892 4.489516384982144  3.759426705287468 2.18211310739325 4.49908380028339  4.027497064100286 3.100209005880656 3.721962771215909  4.032890174307899 3.000533048985804 3.838888997164243  4.168975469861368 3.058146348925566 3.81637884201347  4.153390107207741 3.110444315997324 3.86567337609235  4.020227975788086 3.050274754228158 3.89062277086443  4.014827293350657 3.156150026253253 3.763508539045954  4.137940552079058 3.162505313508125 3.915266271987772  4.007651881407387 3.099733179731539 3.942624942622705  4.002240333685307 3.211955964223458 3.805486856769265  4.122528460780852 3.214475347993017 3.965000677705706  3.995084198170566 3.149085337211045 3.994744683089059  3.989622251019175 3.267782877651346 3.847650504065066  4.107077337706785 3.266444979925256 4.014752583933042  3.982469640010086 3.198435005493331 4.046878608351288  3.976904577706635 3.323717528100142 3.889842716373275  4.091521279779919 3.318471252934889 4.064417016899098  3.969754122721339 3.247858487527505 4.098940519841538  3.964022453012548 3.379831716871688 3.931946397635902  4.075795619114043 3.370613926661115 4.113910788654077  3.956894725867157 3.297425617603381 4.150850968888593  3.950910612202911 3.43616645421986 3.973843526078763  4.149757290859772 2.92971764355614 3.924708730303263  4.136396957527472 2.97337448530373 3.984340348846845  4.123115838479378 3.016698993475909 4.044043614097447  4.10987845279729 3.059842863026058 4.103761409899626  4.096638363946274 3.102902310101913 4.163448241677368  4.083356646851517 3.145945934475934 4.223054901853674  4.070009809297534 3.189056859321156 4.2825403510143  3.535924877116648 3.03123675180197 3.719287517644017  3.646850925322523 3.091489017902044 3.655351372849554  3.511565372936141 3.11731935080039 3.61954646318861  3.511919268315698 3.169010338098864 3.659517599996538  3.643877998632746 3.144880823815132 3.695217326461187  3.533769525728312 3.080597659247311 3.764388929285642  3.512207699931417 3.220588229329894 3.699805794259968  3.640874112585172 3.198127127916484 3.735459462201717  3.531583053198877 3.129740639372915 3.809793253258705  3.512386003257769 3.272230747675116 3.740255857207659  3.637752737621065 3.251439250229699 3.775864053066859  3.529280622319027 3.178872015771077 3.855322314599262  3.512482821618175 3.324021658746567 3.780769808640298  3.634530901526871 3.304903137138448 3.816325193400862  3.526882759550349 3.228080726809168 3.900888870992658  3.512522998928011 3.376042500747106 3.82127879705723  3.631221339631345 3.35860019852715 3.85675464241009  3.524409157236878 3.277441920735213 3.946422058936489  3.512488499722143 3.428362392170099 3.861706004917651  3.627817394746603 3.412597200444216 3.897074142064315  3.521879194321574 3.327038980507719 3.99184578259263  3.754144857114884 3.135029494117243 3.599536007796451  3.889989605770976 3.109880112657272 3.662332796168183  3.868865152704944 3.190572572169085 3.515389323432101  3.863361691910308 3.248964870653611 3.544797038984661  3.881014782667153 3.166789902734593 3.699020757254331  3.750518489074236 3.19111058574961 3.634886653442609  3.857920664181129 3.307348012437518 3.574692100436657  3.872102885209009 3.223602315447987 3.736191691942546  3.746900513780428 3.247113055781976 3.670691169532199  3.852384177082453 3.365912586690591 3.604798201919966  3.863100542031284 3.280509284403808 3.773555082092113  3.743173509213487 3.30323114997104 3.706681246433388  3.846715178563757 3.424744071395424 3.634942020427237  3.853985842861079 3.337576628675122 3.810967855255857  3.739322780367321 3.359558183805562 3.742732587980016  3.84087737304471 3.483910809927679 3.665009587750817  3.844717793041373 3.394874291577536 3.848314422772281  3.735333399399738 3.416193845362047 3.778749993719059  3.834791285364681 3.543483151154283 3.694864560157897  3.835205737602553 3.452502876349564 3.885452464779746  3.731224988376106 3.473282116868893 3.814628237898985  3.217222756942926 3.351738736133719 3.362774803851447  3.265676228516408 3.255376352487394 3.472555779779442  3.356852681556499 3.323795447885133 3.357806298668892  3.369201012568131 3.37504028097495 3.390837111480911  3.276104113676102 3.303807415965375 3.510988998964805  3.230636020725282 3.400711037810194 3.398546250599308  3.381342653493904 3.426429533865217 3.424045565938962  3.286330143077788 3.352293723372554 3.549605296116203  3.243848749368016 3.449826596707429 3.434445523134473  3.393410602303509 3.478001969306706 3.457407081908779  3.296457009588734 3.400872548881279 3.588355357486995  3.256988519933539 3.499069221484258 3.470467742980374  3.405513252632526 3.529779409787201 3.49088199014371  3.306570917215702 3.449585617935396 3.627192660756408  3.270163820664404 3.548434678699989 3.506597082286707  3.417767484905731 3.581811051324202 3.524445189794229  3.316762082968921 3.498480591680042 3.666089891042631  3.436430048857162 2.305694426239056 4.068795215453845  3.372944807684996 2.238516179465379 4.069168357818172  3.51313558347118 2.202866416964794 4.064625577419087  3.51454406219793 2.191486913777478 4.135530664212311  3.374978410757823 2.232806108754585 4.140545442481545  3.438197276636349 2.303815881324789 4.140648123806632  3.51601906423479 2.180118652622471 4.206221181108596  3.377075974685495 2.227107873217046 4.211676414588919  3.440012561261296 2.301938238519129 4.212220944757704  3.51752912261677 2.168734427987383 4.276676811585731  3.379211075285518 2.221393160135865 4.282578483033982  3.441867568512641 2.300004474276959 4.283549758262805  3.519035061683078 2.157308555410741 4.346937436287018  3.381337202439014 2.21564081110298 4.353307835383859  3.443719757996757 2.298004954883808 4.354698686357247  3.52049687952987 2.145827959587839 4.41701709376548  3.383414410265457 2.209839869216067 4.423898304843092  3.445525988415574 2.295943974477767 4.425697798366307  3.52186446342163 2.134331217301211 4.486943773130088  3.385380940616512 2.203993710682878 4.494379369556006  3.447229758826977 2.293843834489652 4.496553125299359  2.96943665513666 2.6679761852969 3.964886552715216  2.96364132347934 2.693832548186541 4.026949919618921  3.357251053307301 2.132241140545716 4.051665877036731  3.360033142652043 2.115075090011276 4.120616779889481  3.362918648723966 2.098011364465796 4.18928608784818  3.365833603233246 2.080960718689237 4.257760003583753  3.368742200875579 2.063892360912904 4.326064164049806  3.371594822646266 2.046787043328282 4.394204577238563  3.374314139962352 2.029666320160509 4.462185036862098  3.386233925154951 3.247479655418757 3.450166562140692  3.394383191670716 3.297790398747343 3.4865086981
[...]
<PointData  Vectors="f_16"> 
<DataArray  type="Float64"  Name="f_16"  NumberOfComponents="3" format="ascii">7.4344534867205644e-02 -2.0019561959304755e-02 9.5455365863448272e-03  7.4241384232337546e-02 -2.0024593507716876e-02 1.0962475045651780e-02  7.2575060601833760e-02 -2.1950058304166280e-02 1.0556597525592694e-02  7.3175896370085008e-02 -2.1296374305869992e-02 1.0686290808568132e-02  7.4738123796731781e-02 -1.9496060495015927e-02 1.1238269926490654e-02  7.5063722066295663e-02 -1.9481227632358482e-02 9.6698774260414976e-03  7.5609325657787246e-02 -1.8924173769214563e-02 9.7408835643871816e-03  7.3608691769426596e-02 -2.0628705042426847e-02 1.0766006238941462e-02  7.3002976031118813e-02 -2.1786334176203879e-02 8.7025686073216660e-03  7.1452884373844019e-02 -2.3589894026913687e-02 9.6891361946097529e-03  7.2144102703928903e-02 -2.2869030960609611e-02 9.6610289871624736e-03  7.3841066655053106e-02 -2.1202294581883881e-02 8.6753095136277228e-03  7.4506234265458895e-02 -2.0594108627551809e-02 8.6358791247723790e-03  7.2659284234273605e-02 -2.2134240834939027e-02 9.6107269045292310e-03  7.3983098660888313e-02 -1.9984314200240789e-02 1.0819978714274318e-02  7.3118686406765915e-02 -2.1421028072431320e-02 9.5677322211578687e-03  7.2297218505489327e-02 -2.3161313287462099e-02 6.8939344895171725e-03  7.0987427119325749e-02 -2.5407649864475506e-02 6.3314373195674017e-03  7.1933210073068909e-02 -2.4214448631147131e-02 5.1772844801280934e-03  7.2001278371158453e-02 -2.4838158259339795e-02 6.0387001443765282e-03  7.3305351989945228e-02 -2.2642492937158306e-02 6.7098824212257439e-03  7.3082152304853987e-02 -2.3832720114678626e-02 4.8919405267453357e-03  7.4156500450875198e-02 -2.2084271645986423e-02 6.5496415438328721e-03  7.2840632850087433e-02 -2.4225358361572004e-02 5.7852447707707399e-03  7.4088104037527233e-02 -2.3396322838864121e-02 4.6495828745783830e-03  7.4947847471960774e-02 -2.1512715542823680e-02 6.4242417566151323e-03  7.3613256258448473e-02 -2.3581118263614906e-02 5.5834249183904314e-03  7.5050118711857863e-02 -2.2917097179048055e-02 4.4597546838872470e-03  7.3710438644292373e-02 -2.0968067049348192e-02 1.4470755375230789e-02  7.1981761925320895e-02 -2.2281047145874488e-02 1.5161595586210682e-02  7.2394662549164462e-02 -2.1718709895978537e-02 1.4754908224365463e-02  7.1606065751912529e-02 -2.2261244826968968e-02 1.5528094247606331e-02  7.3291147459771236e-02 -2.0988249474707746e-02 1.4799021510464959e-02  7.2123060059084712e-02 -2.1592896067164590e-02 1.5159349565759378e-02  7.1868831720200546e-02 -2.1422815592233063e-02 1.5482791814271847e-02  7.1266269523507494e-02 -2.2185780598672034e-02 1.5832000823537595e-02  7.2891812075816270e-02 -2.0965485423932975e-02 1.5084212802290617e-02  7.1607743715411301e-02 -2.1234410045145265e-02 1.5735393987849206e-02  7.0920723111728992e-02 -2.2084065471019345e-02 1.6075110019922720e-02  6.6227145868030329e-02 -2.6692807930177937e-02 1.6566766972580946e-02  6.5630934628539972e-02 -2.6873301124957151e-02 1.7315602683017597e-02  6.5370295899285141e-02 -2.7021163970713139e-02 1.6581669862829929e-02  6.5047402487972500e-02 -2.6560652863315732e-02 1.6997805597050039e-02  6.5318367158878954e-02 -2.6638842775208095e-02 1.7744454944217804e-02  6.5960113328848408e-02 -2.6348663339689771e-02 1.7001400800552499e-02  6.4734480166340758e-02 -2.6125548786660843e-02 1.7352864186038267e-02  6.5020389954437097e-02 -2.6410879933600685e-02 1.8105174358627144e-02  6.5690960449940633e-02 -2.6017683780108158e-02 1.7370737781133027e-02  6.4428807607671668e-02 -2.5710413275349085e-02 1.7655004296608975e-02  6.4730821607904110e-02 -2.6188158909708797e-02 1.8407135689594074e-02  6.5420329991242226e-02 -2.5698337837409539e-02 1.7686954965129273e-02  6.4122592792805772e-02 -2.5309342189944867e-02 1.7914190851822678e-02  6.4441079903070242e-02 -2.5970520316006399e-02 1.8659540644629786e-02  6.5147891711981293e-02 -2.5389344072071118e-02 1.7961066692808305e-02  6.3806894708517206e-02 -2.4917056055985012e-02 1.8140111628381216e-02  6.4142928131422292e-02 -2.5758775697878652e-02 1.8871889814602208e-02  6.4873239746190456e-02 -2.5089082758018039e-02 1.8204573007358168e-02  6.3469627167545201e-02 -2.4530105535351000e-02 1.8347749327672969e-02  6.3825934550220467e-02 -2.5553207709016541e-02 1.9054778749201137e-02  6.4596890394728310e-02 -2.4798147376777217e-02 1.8424388132528058e-02  6.6831368329963448e-02 -3.3761869593226759e-02 6.6282350385356232e-03  6.6328849334956974e-02 -3.1634330282866253e-02 8.6526572446217580e-03  6.5805243087705967e-02 -3.1782678631283423e-02 8.6432722921091897e-03  6.5177864240634084e-02 -3.0836856428991692e-02 7.8036738376448698e-03  6.5906588731136612e-02 -3.0612182763169755e-02 7.9156124243620046e-03  6.6490729146761768e-02 -3.2950919637221562e-02 5.6424430989280893e-03  6.4610057284866421e-02 -2.9895946740757087e-02 7.0998169870087145e-03  6.5521586218331998e-02 -2.9612874169777453e-02 7.3177879170408539e-03  6.6190376501771064e-02 -3.2098751268668492e-02 4.8438948236072974e-03  6.4057362025658274e-02 -2.8935253011365306e-02 6.4772741201898753e-03  6.5133956833456158e-02 -2.8596382475247428e-02 6.8054678802906268e-03  6.5882733506073557e-02 -3.1178809043998806e-02 4.1531843500728161e-03  6.3468822748629666e-02 -2.7939643462892710e-02 5.8895351986377048e-03  6.4705123459676300e-02 -2.7536856524197236e-02 6.3372411736297204e-03  6.5521321511148700e-02 -3.0169830978666032e-02 3.5133985913737486e-03  6.2804238967239093e-02 -2.6904921374587793e-02 5.3085034464988544e-03  6.4201014407694920e-02 -2.6415545329281462e-02 5.8837173558948337e-03  6.5060103666854538e-02 -2.9059760814220251e-02 2.8862935532375901e-03  6.2131234043552426e-02 -2.5844468973036869e-02 4.8090721070498796e-03  6.3658131132531673e-02 -2.5248211850740818e-02 5.4382700594716969e-03  6.4636061387949598e-02 -2.7869878754735837e-02 2.2863247346667690e-03  6.5350790259960143e-02 -2.9981797350892046e-02 1.0685740259791051e-02  6.4732519547113163e-02 -2.8902416000092836e-02 1.0181415047664804e-02  6.4167838296132609e-02 -2.7878095204887675e-02 9.7601252028015565e-03  6.3618886744572251e-02 -2.6871629812711004e-02 9.3879527883393068e-03  6.3047337561659297e-02 -2.5860041539273272e-02 9.0385000787707344e-03  6.2418239936631474e-02 -2.4827525262519030e-02 8.6935302171477144e-03  6.1751268858376514e-02 -2.3765561710999555e-02 8.3792902535717497e-03  6.8298470777879955e-02 -3.0834447773710402e-02 5.9947665603667273e-03  6.7900762327101419e-02 -3.2975508579278431e-02 4.8344838892210003e-03  6.8406518422619050e-02 -3.1752023415222139e-02 4.2168740904617308e-03  6.9235076062226453e-02 -3.1204886949584242e-02 3.5619846994019420e-03  6.8447302909019556e-02 -3.2326138466743440e-02 4.0626965771352339e-03  6.8953265023343452e-02 -3.0087603157507962e-02 5.3786090054444785e-03  6.9920088007626308e-02 -3.0552828646500906e-02 3.0192951599066452e-03  6.8875760127850044e-02 -3.1582525124332482e-02 3.4268356642161877e-03  6.9450518459225133e-02 -2.9273008600646969e-02 4.8733126518401976e-03  7.0555113927551413e-02 -2.9812014091804413e-02 2.5702925194270401e-03  6.9264995245935060e-02 -3.0748795748712018e-02 2.9012261399965914e-03  6.9893053359030927e-02 -2.8401661749181663e-02 4.4630498062158373e-03  7.1168463579140223e-02 -2.8958052189887371e-02 2.1852686859891979e-03  6.9620218609649107e-02 -2.9796720331893543e-02 2.4388320158760220e-03  7.0300875167294483e-02 -2.7448194450873119e-02 4.1112745654953379e-03  7.1775133601692326e-02 -2.7952608124890890e-02 1.8367875491188672e-03  6.9945542128644206e-02 -2.8691226069988272e-02 2.0017639811155136e-03  7.0682944519192895e-02 -2.6377702304203256e-02 3.7859980871941122e-03  7.2367611468589263e-02 -2.6752069372146327e-02 1.4925810586344890e-03  7.0236327148603783e-02 -2.7384232989084264e-02 1.5533643429793082e-03  7.1048657185691741e-02 -2.5144608460204665e-02 3.4720542469509714e-03  6.7631928388194540e-02 -3.4838655526048506e-02 4.1281456802869237e-03  6.7345960657016188e-02 -3.4616141647450041e-02 5.3987315861236795e-03  6.7485303410665901e-02 -3.6939894013704858e-02 3.2637864956024682e-03  6.7691258261977999e-02 -3.6561901743055215e-02 2.2651531495012315e-03  6.7361976222230294e-02 -3.3944651048446503e-02 4.4053748557342743e-03  6.8015771994792820e-02 -3.4285313070193356e-02 3.2220013541666612e-03  6.7891923669159526e-02 -3.6054984501733812e-02 1.4514112493393761e-03  6.7366974505672986e-02 -3.3198537906465382e-02 3.5988333101185537e-03  6.8332819380523185e-02 -3.3631364621423937e-02 2.4910624247626136e-03  6.8069943982564746e-02 -3.5404174189321805e-02 7.5028579923050974e-04  6.7355393085012455e-02 -3.2361067846955270e-02 2.9107070901910931e-03  6.8612851810174860e-02 -3.2860883247300833e-02 1.8725163975629741e-03  6.8211335042435497e-02 -3.4588024670651668e-02 1.0688398151648437e-04  6.7300050679205983e-02 -3.1408342367644927e-02 2.2822857740083095e-03  6.8854854227679257e-02 -3.1946455736445743e-02 1.3175957234300554e-03  6.8299273008360847e-02 -3.3565522290760000e-02 -5.2611341180003389e-04  6.7166822209572263e-02 -3.0307628926210823e-02 1.6664869678434935e-03  6.9055275618523509e-02 -3.0846606012577982e-02 7.8328017512456776e-04  6.8344567598294936e-02 -3.2292587736815238e-02 -1.1809173287290725e-03  6.6988724216033316e-02 -2.9028422123858186e-02 1.0523522701944986e-03  6.9219789821540617e-02 -2.9508875711147565e-02 2.1050703573627613e-04  7.0746760666551903e-02 -2.7330594893838836e-02 1.5197068985155259e-03  7.0030594831820892e-02 -2.8363910587084748e-02 2.5400801580449045e-03  6.9319285785954518e-02 -3.0649715158293549e-02 8.9457168999342409e-04  7.0629980669384501e-02 -3.0726791001273280e-02 4.4368886551902887e-04  7.1301728429424754e-02 -2.8238666838646016e-02 2.0856515025653084e-03  7.2159121208679289e-02 -2.7438641820576232e-02 1.1589202237451727e-03  7.1843956062509429e-02 -3.0664477154901348e-02 6.6046985132488820e-05  7.2438148575509925e-02 -2.8004601474163039e-02 1.7063773936660744e-03  7.3485971673204531e-02 -2.7427807521396723e-02 8.5568048925627801e-04  7.3019922841535315e-02 -3.0465530702961249e-02 -2.4705830286716286e-04  7.3524858949761782e-02 -2.7671714929283702e-02 1.3981627881958717e-03  7.4776317700171235e-02 -2.7313946005578751e-02 6.0731760565484736e-04  7.4232872175494805e-02 -3.0151262449877727e-02 -4.9402067217704131e-04  7.4621839299150450e-02 -2.7246560537602861e-02 1.1478283602524024e-03  7.6088402195293614e-02 -2.7117287891487984e-02 4.1139003635480451e-04  7.5536921937551640e-02 -2.9734144378176182e-02 -6.6659738194684568e-04  7.5782905230617231e-02 -2.6721838539313401e-02 9.5304373847887494e-04  6.8225319285369401e-02 -2.5283781771088989e-02 1.5471922852485631e-02  6.8677738568679814e-02 -2.4870073932595074e-02 1.5755236465466785e-02  6.7758648127364665e-02 -2.5658134364242930e-02 1.6143867402361761e-02  6.7565698816916847e-02 -2.5407480251351120e-02 1.6599696334898995e-02  6.8522047243584142e-02 -2.4593813961299182e-02 1.6217756858105323e-02  6.8114843820439114e-02 -2.4886969262087489e-02 1.5927461516168327e-02  6.7324787442161513e-02 -2.5157044566316799e-02 1.6980904707350062e-02  6.8297349762731080e-02 -2.4319634331087418e-02 1.6590645874768217e-02  6.7934617921460549e-02 -2.4510757061250908e-02 1.6302499379895224e-02  6.7059713595385442e-02 -2.4909993950187410e-02 1.7307044646733560e-02  6.8047078257091886e-02 -2.4048901444503692e-02 1.6901224953507474e-02  6.7720650994713541e-02 -2.4151909858360049e-02 1.6617402640461531e-02  6.6789422971386805e-02 -2.4669107617787279e-02 1.7588039101504527e-02  6.7791882036377593e-02 -2.3781291127098578e-02 1.7163228072388098e-02  6.7499039782254411e-02 -2.3803611233180956e-02 1.6886380161858582e-02  6.6531537245349937e-02 -2.4434964309590534e-02 1.7833363942798768e-02  6.7553364702122407e-02 -2.3516438862395798e-02 1.7383131511879164e-02  6.7295181873812504e-02 -2.3461091454356899e-02 1.7117419900567067e-02  6.6308019188844547e-02 -2.4207093096966732e-02 1.8052051904836185e-02  6.7352648684628286e-02 -2.3255230133408317e-02 1.7565389233918479e-02  6.7140083444086951e-02 -2.3121825308484292e-02 1.7309608591441553e-02  7.2900250162318214e-02 -2.1299714493116503e-02 1.2065386623649310e-02  7.3234006329882001e-02 -2.0735604511641172e-02 1.2383962795137735e-02  6.8857263402924959e-02 -2.4841084068545516e-02 1.6101121881396410e-02  6.8622796533301889e-02 -2.4736299606922505e-02 1.6549750720794464e-02  6.8327801377155190e-02 -2.4603100850781379e-02 1.6918977491941913e-02  6.8010092670066094e-02 -2.4461924355303370e-02 1.7229197254462290e-02  6.7688590803702472e-02 -2.4320502680781338e-02 1.7491803669939011e-02  6.7372138572079521e-02 -2.4173387737338275e-02 1.7716615501445706e-02  6.7076438347122083e-02 -2.4019796626624505e-02 1.7916424859221802e-02  6.8920717682824151e-02 -3.1000832420599679e-02 1.9794316749187236e-03  7.0122364071481605e-02 -3.0844827627224743e-02 1.4521892281244369e-03  7.1191078072384201e-02 -3.0563826189768200e-02 1.0127229374556383e-03  7.2200414909586536e-02 -3.0166105405240923e-02 6.4505436266895015e-04  7.3219066343382280e-02 -2.9657728631924646e-02 3.4447232713982518e-04  6.7235667840105137e-02 -2.5950154190000897e-02 1.7134585828826463e-02  6.7980814659666627e-02 -2.5457398765000527e-02 1.6888058114399314e-02  6.6949499764322573e-02 -2.5845490828383385e-02 1.7492036306334988e-02  6.7676046538025864e-02 -2.5387890983093301e-02 1.7243937493938301e-02  6.6652107259729004e-02 -2.5727992537093829e-02 1.7795058466508633e-02  6.7351929665319249e-02 -2.5298207088578953e-02 1.7545147313875267e-02  6.6347678720380929e-02 -2.5605452004949087e-02 1.8051329833387662e-02  6.7019143573348622e-02 -2.5198274728593165e-02 1.7800516556120895e-02  6.6038598872855653e-02 -2.5481866439147564e-02 1.8269181115703137e-02  6.6686353902821738e-02 -2.5095214304339839e-02 1.8019075925093990e-02  6.5729165505023293e-02 -2.5366879238900467e-02 1.8458768540763643e-02  6.6359530813737147e-02 -2.4983865198839564e-02 1.8210553777322051e-02  6.5424403949637513e-02 -2.7242121105205117e-02 1.5475077700017881e-02  6.4765737207185398e-02 -2.7124442896015424e-02 1.6488426166818271e-02  6.4383097174191037e-02 -2.6564743054184652e-02 1.6872616384735615e-02  6.5099985205065894e-02 -2.6558221114476629e-02 1.5821299434637816e-02  6.4779229141115183e-02 -2.5914979189630285e-02 1.6108946559954977e-02  6.4033344760782776e-02 -2.6038735695250052e-02 1.7195855388913290e-02  6.4461200668726626e-02 -2.5306756437460089e-02 1.6359571067467514e-02  6.3696435653438910e-02 -2.5540163381259813e-02 1.7468656420324150e-02  6.4139930880799459e-02 -2.4719476013008921e-02 1.6582781935139724e-02  6.3360279247920870e-02 -2.5060367003024497e-02 1.7702181122480055e-02  6.3809699328527522e-02 -2.4141884679892162e-02 1.6786371232497179e-02  6.3012256773417763e-02 -2.4590343618785458e-02 1.7903243182581317e-02  6.3464966256603805e-02 -2.3564731293010954e-02 1.6981361276169449e-02  6.2628054025795701e-02 -2.4122761477428249e-02 1.8077866479271589e-02  7.1535748867263022e-02 -2.5496624286279090e-02 2.8190282932663664e-03  7.2878815104764294e-02 -2.5451678244811465e-02 2.4747684384000550e-03  7.4121399716138292e-02 -2.5314558254861164e-02 2.1846500180039189e-03  7.5320618804974912e-02 -2.5094119135374130e-02 1.9480159794908315e-03  7.6528736740851505e-02 -2.4802397260420057e-02 1.7577129925199352e-03  7.7803045125219406e-02 -2.4448443116723902e-02 1.6130382365709503e-03  6.7031943958708234e-02 -3.2953560077510054e-02 7.0087591077736379e-03  6.6874902134159669e-02 -3.2048438715495710e-02 6.1525364451493238e-03  6.6721502038865316e-02 -3.1128583568504144e-02 5.4628526684837829e-03  6.6547940001908015e-02 -3.0155521054768646e-02 4.8810131625328396e-03  6.6325509920983447e-02 -2.9103147661592325e-02 4.3552559528075531e-03  6.6023556179283266e-02 -2.7947696351944561e-02 3.8454209537006566e-03  6.5668888330348063e-02 -2.6684027338173842e-02 3.3355105449543051e-03  6.9010071152692615e-02 -2.9711939025282786e-02 4.9543133272372209e-03  6.9940823658600784e-02 -2.9138669324930731e-02 4.4111886928426200e-03  7.0712833437284739e-02 -2.8485797042635163e-02 3.9590822782052844e-03  7.1416775093296039e-02 -2.7762907910316950e-02 3.5866679019091684e-03  7.2103922356698671e-02 -2.6956886007760028e-02 3.2746216854425314e-03  7.2794996593358335e-02 -2.6035731975401117e-02 3.0012126526440435e-03  7.3497921011955403e-02 -2.4947669197415347e-02 2.7621512051250042e-03  6.9549663965438532e-02 -2.9013252139197750e-02 3.7454237473464064e-03  7.0671068095966752e-02 -2.8641858318518475e-02 3.2518884944281942e-03  7.1627934518129058e-02 -2.8175636082109278e-02 2.8376403646621622e-03  7.2520975827609330e-02 -2.7629519264293904e-02 2.4964460642070210e-03  7.3408619058917657e-02 -2.6992953360129794e-02 2.2158568119636439e-03  7.4330120799527430e-02 -2.6238103898686981e-02 1.9830088517202040e-03  7.4293228413125231e-02 -2.9022137483563130e-02 1.0596106511092317e-04  7.5341185447189596e-02 -2.5326276212219601e-02 1.7918156071812842e-03  7.7049213129506758e-02 -2.6101347293130218e-02 8.5222112607469367e-04  7.5458613261933122e-02 -2.8197859820783724e-02 -6.0461979169232510e-06  6.9805205634243486e-02 -2.7687740059037787e-02 5.7533023276460961e-03  7.0493672827004999e-02 -2.6723336201035768e-02 4.9046039028590761e-03  7.1596932299263491e-02 -2.6277452909478579e-02 4.5118079842736362e-03  7.0782654381487203e-02 -2.7089627375204133e-02 5.3365726481112794e-03  7.2537142754151060e-02 -2.5767042074682091e-02 4.1820778020865415e-03  7.1586137791612367e-02 -2.6432158778616897e-02 4.9835907775076195e-03  7.3414447859921184e-02 -2.5201795806578067e-02 3.9157127657048303e-03  7.2315928255802242e-02 -2.5725317253654442e-02 4.6978420189269093e-03  7.4281610637507503e-02 -2.4572569924690688e-02 3.6997304258243862e-03  7.3027224180427452e-02 -2.4958686285173295e-02 4.4624820893787633e-03  7.5175413807889099e-02 -2.3856385582843021e-02 3.5191900833250675e-03  7.3747743080170930e-02 -2.4101172693398350e-02 4.2566170586061432e-03  7.6147290156404784e-02 -2.3026929249921300e-02 3.3638346534895498e-03  7.4505311641939256e-02 -2.3108817105854794e-02 4.0665164196481609e-03  6.9538828872207886e-02 -2.7310606002198548e-02 7.5883655900108654e-03  6.8983288700028067e-02 -2.8966034032328999e-02 6.4923774375244599e-03  6.9762790739407499e-02 -2.8242554475854432e-02 6.0056844646045960e-03  7.0320630768841791e-02 -2.6541985837686407e-02 7.2387017774169790e-03  7.0371244510525136e-02 -2.7459195348048172e-02 5.5982890301561200e-03  7.0922089775283748e-02 -2.5729829874926207e-02 6.9485441567419528e-03  7.0921478185639070e-02 -2.6638483125443427e-02 5.2663089172441504e-03  7.1461258646160389e-02 -2.4904590051394389e-02 6.7159247195814039e-03  7.1443321139657526e-02 -2.5754607229180805e-02 4.9854839844417111e-03  7.1972565804067495e-02 -2.4043468947252102e-02 6.5205392771830045e-03  7.1955800796086239e-02 -2.4772082579519534e-02 4.7313590156093516e-03  7.2476517067704374e-02 -2.3112560518206558e-02 6.3391570143502465e-03  7.2471516191626228e-02 -2.3651377184060973e-02 4.4767544551819654e-03  7.2976959986654585e-02 -2.2077827589249411e-02 6.1545409704061417e-03  7.3083594424119408e-02 -2.1000551614577274e-02 1.3052256601794005e-02  7.1515759066299492e-02 -2.2351611082047858e-02 1.4088476421000482e-02  7.1707401224584424e-02 -2.2345213172425899e-02 1.3000563682017978e-02  7.1900507397904129e-02 -2.1785248432724159e-02 1.3360134427354073e-02  7.1502587648595059e-02 -2.1933948799408316e-02 1.4521968752966543e-02  7.3190457896860628e-02 -2.0584317277680148e-02 1.3482026465973620e-02  7.1990901857154760e-02 -2.1215306441095753e-02 1.3622925808822069e-02  7.1456556136307678e-02 -2.1505731426279477e-02 1.4842091617432015e-02  7.3215431476520404e-02 -2.0131544983737676e-02 1.3799541186201159e-02  7.2044459478589076e-02 -2.0678912434997861e-02 1.3815949294325889e-02  7.1387050847416075e-02 -2.1094054214860335e-02 1.5080533333447150e-02  7.3201574228053928e-02 -1.9691294060366196e-02 1.4035852819055256e-02  7.2077291345811437e-02 -2.0163663660441720e-02 1.3954300945295242e-02  7.1291975212928169e-02 -2.0695095345192753e-02 1.5254627203132112e-02  7.3164