<?xml version="1.0"?>
<VTKFile type="UnstructuredGrid"  version="0.1"  >
<UnstructuredGrid>
<Piece  NumberOfPoints="922" NumberOfCells="3994">
<Points>
<DataArray  type="Float64"  NumberOfComponents="3"  format="ascii">6.136166158715032 3.822571241300565 3.274886713764307  6.222709764726726 3.903240936330124 3.233301474856872  6.159754876272062 3.893551683049547 3.147282827938702  6.124341676795716 3.944699879429323 3.168865309765043  6.185014255098896 3.953153403802282 3.258233508213139  6.105755736591256 3.876258330530458 3.300292664108877  6.075609419627858 3.930134289264108 3.32573086346799  6.147660909661735 4.003454231840695 3.283207162570597  6.089237524357851 3.996198876695072 3.190469208989109  6.045545838065894 3.984212870036775 3.351248995851003  6.110405055972965 4.053934815241482 3.308259444701666  6.054216409314396 4.04792004140217 3.212155883768835  6.0154319766718 4.038395630702425 3.376848665546305  6.073073968944207 4.10450700499042 3.333379983959187  6.019111480349337 4.099765041198624 3.233916986313173  5.983742961802297 4.151664299348034 3.255712749459991  6.035459349720901 4.155098954266355 3.358541155388977  5.98509901820474 4.092702798264269 3.402504169489289  5.947713189505186 4.203452815253006 3.277561785392614  5.997129415149553 4.205497362368132 3.38373999971797  5.954215323704203 4.147139456752471 3.428239807947751  5.141563786684137 3.607884958165014 3.454101691302056  5.131607342116907 3.632093277006738 3.318290031878065  5.034061699394991 3.600039508988027 3.35168706989639  5.015075259735809 3.666329458205038 3.367088171994258  5.118240100753837 3.700374677759064 3.331174099472396  5.127120676155678 3.676424044843346 3.476569684830307  4.996238644968346 3.732527438912947 3.382704890668565  5.104834610466369 3.768553401121352 3.344321149277741  5.112674330468192 3.744825674673646 3.499198148441698  4.977435780583378 3.798690728058967 3.398413335253037  5.091420066725593 3.836723916054514 3.357559764078015  5.098228287823832 3.813176513773776 3.521878809410847  4.958612864066199 3.864838438458762 3.414116663213687  5.078002514346644 3.904904835865461 3.370780748391535  5.083789858987656 3.881492105238701 3.544536830902548  4.939730956992913 3.930944200712113 3.429736259819717  5.064588047457876 3.973068578380451 3.383903837440273  5.06936089540826 3.949751355451172 3.56711351227702  4.920755354417397 3.996957330771687 3.445215012390612  5.051188904225163 4.041156424271324 3.396858541613056  5.054945715052977 4.017916725079623 3.589557762523545  4.784144980621432 3.485671612285435 3.45687335956238  4.841071317280245 3.462078614843557 3.566219359931563  4.916214723402724 3.517965661338521 3.487063138971584  4.894636322088134 3.58213410495681 3.511649608454082  5.141846657912321 3.665971703260448 3.046885086779868  5.123808410043225 3.652131364840413 3.199740957476425  5.220586764512992 3.667750110694033 3.146750609073546  5.213889458552988 3.734802394298384 3.153237101306836  5.112301649035835 3.719035913324348 3.208946441955603  5.1333188427127 3.730974515801723 3.051155778784976  5.100705401615745 3.785964491701702 3.218453314399533  5.124659150727254 3.7960738056715 3.055719868000291  5.206978165518203 3.801928768158593 3.160045718345202  5.089080352995 3.852960880831647 3.228061596087005  5.115968540756288 3.861327667680671 3.06037790931956  5.200031531583803 3.869170200481841 3.166932026555998  5.07744963836163 3.920019028536302 3.237643722463416  5.107279603084974 3.926720993411085 3.064998552949237  5.193104450632705 3.936516741698731 3.173778246348113  5.06582431853546 3.98710790163361 3.247103844777592  5.09861869795444 3.992219355594718 3.069461260510736  5.186247877788747 4.003939748282669 3.180479428261002  5.090009707744787 4.057757984175857 3.07365807203241  5.054239822769903 4.054180175667316 3.256346999759104  5.179528188107484 4.071390739997454 3.186936999049807  6.036925063298849 3.325665305805135 3.948879031594727  6.139510186106941 3.393549903502258 3.898628809491469  6.023315434785519 3.427716843128333 3.83406653399822  6.014928061336167 3.485051682668971 3.881309750645006  6.126326439805648 3.448526257826928 3.948664802086544  6.027724090049699 3.380785552026619 4.001852129739587  6.113198378997019 3.503372065363345 3.998851315233907  6.018490741028033 3.435754179628387 4.054981688597481  6.006464929059096 3.542268013039847 3.928751956499831  6.100143810109377 3.558182327102581 4.049095695292842  6.009302609892154 3.49069230356934 4.108156108431808  5.998032213705176 3.599470262526669 3.976260812664206  6.087144595034366 3.613011351178941 4.099357454256942  6.000163939369449 3.545641119908407 4.16133540754009  5.989653727131913 3.656719923314656 4.023792206235638  6.074171626168662 3.667902002189677 4.149625342155927  5.991076211008658 3.600639213341005 4.214505867095424  5.981340323292806 3.71408638910651 4.071331382248673  5.982037704672569 3.655759117243089 4.267663253345026  6.061142171429812 3.722923645058824 4.199871967625065  5.973164303266234 3.771676036316135 4.118867228847909  4.957443713818196 3.599619236230561 3.247014712570776  5.053124099668478 3.625618449421543 3.244921279098925  5.029571202844509 3.641536031203499 3.121576171177958  5.01499900844974 3.705873672330455 3.129904769544825  5.035971669594482 3.691072257710428 3.257250285499532  4.938886157812393 3.663803898495969 3.259883873244601  4.920455928132759 3.728015374252478 3.273007626748273  5.01888301328546 3.756479415794909 3.269838704341514  5.000412820778481 3.770295848733658 3.13853990224138  4.902042230129574 3.792267947643069 3.286242642276604  5.001797651561455 3.821912126234277 3.282535342294943  4.98580945021809 3.834816472278533 3.14728399165809  4.971175093328397 3.899422247984714 3.156007496671345  4.98469190241593 3.887372274994412 3.295223261852372  4.883585204398353 3.856551597323082 3.299479148785619  4.956490093282854 3.964082805728052 3.164600251630291  4.967544582295251 3.952819482429025 3.30780863093729  4.865034110066579 3.920824456004417 3.312613650784598  4.941723089172491 4.028751222275219 3.172955094326924  4.950303865268446 4.018174496232211 3.320198710480883  4.846350752119241 3.985042274598974 3.325556519031183  5.955816304409664 3.812396134582933 3.027939686655101  5.994743245626038 3.862953996096322 2.905567548624556  5.875984398046093 3.804916230683712 2.909106148925267  5.851100558697389 3.860999373930781 2.919387908605414  5.963665835130034 3.916096941122914 2.916855671831525  5.929275401211817 3.868270289129236 3.041942431692714  5.902890644539897 3.924369386407581 3.056003953511937  5.932802737370827 3.96962159313811 2.928153402521537  5.826318119382653 3.917399927362311 2.929766630691297  5.876541950230967 3.980701159118842 3.070116072324304  5.901953521222571 4.023384263549272 2.939498381853149  5.801534736075917 3.97403873456064 2.940181960933346  5.850093548341252 4.037215538451929 3.084281561915555  5.601782466282978 3.68270871005484 3.250122610725922  5.721982214131226 3.705627280437306 3.20309521746121  5.649065957382173 3.709229831232139 3.117684857513643  5.63917852469106 3.773504849442145 3.126976501968504  5.711733344638439 3.770141581864278 3.215901679083247  5.595741725892687 3.749764071897869 3.262099318860121  5.62909816585605 3.837875273857775 3.136531673136473  5.701304135744074 3.834717571379743 3.22894279797745  5.589403745703884 3.816827270313137 3.274373059074244  5.618951851843954 3.90242259450542 3.14620151570556  5.690801891088028 3.899443119381925 3.242083475714558  5.582997245465041 3.884026084874768 3.28674360553566  5.608831160476917 3.967205754329596 3.155847108263964  5.680317475369669 3.964379473651932 3.255221968532396  5.576651387146993 3.951408991951602 3.299086178404563  5.598838272547632 4.032298995544594 3.165375960218519  5.669933319024179 4.029622868252724 3.26828671979898  5.570499917498432 4.019003879187211 3.31130759558737  5.589196621094043 4.097790148898678 3.174655789794303  5.659910860726291 4.095337252207694 3.281149627434973  5.564765155299812 4.086788352083408 3.323265098948913  5.907275941645332 3.765583004466432 3.152838751031717  5.831658128152075 3.768521863212402 2.999702724986903  5.811494161657934 3.827340031894322 3.009837606737384  5.886592415784807 3.825406042908241 3.167891319348152  5.791351720356103 3.886376667343137 3.020110608501883  5.865951522939557 3.885343721285208 3.183056322732894  5.771201209676156 3.945635122019731 3.030453300198979  5.845290971821086 3.945459205943873 3.198294062007385  5.750961604329127 4.005113546939129 3.040836725208018  5.824570969300063 4.005770065971142 3.213578319648778  5.730611817838883 4.064901308836649 3.051187391622388  5.823444306969642 4.093945757820519 3.098445621084384  5.803748198952219 4.066394827001088 3.228870462929969  5.710191168680228 4.125231177058276 3.061443867287865  5.782831920421403 4.127635757659182 3.244100145007581  6.193914369343162 3.978076996165948 3.810155032485379  6.122302666918506 4.039404525180828 3.671817341414502  6.2383027252098 4.074690833422824 3.736273537351519  6.154562770190195 3.989510659035552 3.634395805517965  6.203868887912596 4.122585468932238 3.777039234038875  6.163238569844911 4.026955015669655 3.852366580748802  6.089429922864239 4.089183496755651 3.709258983541385  4.900962490116817 3.427758188650935 3.676490895985331  4.955668714863122 3.354475422420271 3.808397417373506  5.03887219977787 3.459795663025505 3.683598833268861  5.022458882543591 3.523275033804865 3.722581391627302  4.938363675545755 3.414202721980062 3.85527970062286  4.880491811397492 3.490219638999342 3.713346487679628  5.006171474859211 3.586519729572381 3.761565900864062  4.921216006206013 3.473689322718605 3.902117191646509  4.86023346010928 3.552522136327682 3.750289872140334  4.989954324506184 3.649602323590339 3.800539389576895  6.075145378582302 3.882265396221322 3.040772027601136  6.041574170566144 3.934710854235421 3.057258969181345  6.008240091248518 3.987550847123196 3.073765847057734  5.974941082460237 4.040599572991028 3.090338
[...]
<PointData  Vectors="f_16"> 
<DataArray  type="Float64"  Name="f_16"  NumberOfComponents="3" format="ascii">5.2277760448208657e-02 -1.8197393878301774e-02 9.6480137197862536e-03  5.0629370054649257e-02 -1.6312062963998480e-02 9.5111553031433805e-03  5.2132480258805118e-02 -1.7594254556257776e-02 8.8597339619385061e-03  5.0800814610589613e-02 -1.8374009398384707e-02 8.3976678193536207e-03  4.9345900871891599e-02 -1.7051261987271603e-02 9.0361699879150468e-03  5.0984111156859004e-02 -1.8740255694079094e-02 9.1302908724668931e-03  4.9762555042808847e-02 -1.9166876415963076e-02 8.6511277251532480e-03  4.8173318158969886e-02 -1.7659619933756757e-02 8.5944429749859712e-03  4.9556491252987105e-02 -1.9022391140954092e-02 7.9659685757074057e-03  4.8581341638627817e-02 -1.9516386251912442e-02 8.2039423171664412e-03  4.7053406857166906e-02 -1.8192441867568299e-02 8.1701927082392101e-03  4.8359067695332582e-02 -1.9588836340357466e-02 7.5527191808100434e-03  4.7396380414407094e-02 -1.9820524478478905e-02 7.7822971600553514e-03  4.5940745002801313e-02 -1.8695197971355462e-02 7.7618352691588297e-03  4.7171609436353679e-02 -2.0114493698231473e-02 7.1552687235280294e-03  4.5994370609392453e-02 -2.0629139788259761e-02 6.8162674668507100e-03  4.4825235668404712e-02 -1.9206179111927509e-02 7.4141841425376274e-03  4.6193217984164536e-02 -2.0100032741076468e-02 7.4190280692125179e-03  4.4761816423926189e-02 -2.1220041359349920e-02 6.6800743830779975e-03  4.3612300500634714e-02 -1.9837999684875863e-02 7.2485511517639571e-03  4.4994489179024350e-02 -2.0384144702019637e-02 7.2989305082033435e-03  5.7850174683100927e-02 -2.9278206606632700e-02 7.7026165859737806e-03  5.8976313412926695e-02 -3.1413368558684547e-02 6.9071316561527697e-03  5.9729468513821111e-02 -3.1783442457953316e-02 6.7612836491574378e-03  5.8901985617999308e-02 -3.1503214599422964e-02 5.6991424949528009e-03  5.8154985264581051e-02 -3.1108263915381466e-02 5.8604595168679496e-03  5.6981812562579573e-02 -2.8794537878108595e-02 6.7105252574805214e-03  5.8040698881469684e-02 -3.1258214885873978e-02 4.6807460751751972e-03  5.7303526876971024e-02 -3.0850240308485072e-02 4.8958470363848015e-03  5.6090322319352924e-02 -2.8392869771872064e-02 5.7538207244716959e-03  5.7193888705818985e-02 -3.1019779949925708e-02 3.6822425091869518e-03  5.6461304540935613e-02 -3.0597863116889296e-02 3.9532157889250142e-03  5.5209535466543690e-02 -2.8021108728066402e-02 4.8021934018734145e-03  5.6371230600713210e-02 -3.0783686005087931e-02 2.6826392627898321e-03  5.5639656087270561e-02 -3.0342039708271620e-02 2.9969978663758156e-03  5.4341844423108840e-02 -2.7667156150074021e-02 3.8359907317439025e-03  5.5554252686771756e-02 -3.0555159400683610e-02 1.6512496247749313e-03  5.4832511935970281e-02 -3.0089417405165467e-02 1.9973800170013955e-03  5.3484720025546002e-02 -2.7340565865861501e-02 2.8369651226026952e-03  5.4735225755451401e-02 -3.0346982389542820e-02 5.6462766319780879e-04  5.4027645351028837e-02 -2.9855962160171889e-02 9.3147726359255078e-04  5.2633270363865912e-02 -2.7056793491558644e-02 1.7860120022036065e-03  6.1933520272464543e-02 -3.2646026703063116e-02 6.5423173403229406e-03  6.0707821027336156e-02 -3.0416268983560115e-02 7.7546117106587062e-03  6.0275284050054723e-02 -3.0869560017013714e-02 7.3588800584694063e-03  5.9357247279681058e-02 -3.0480189756903801e-02 6.3473182029597256e-03  6.1042332817521312e-02 -3.5404076491608753e-02 5.5985104504662373e-03  5.9919545171693088e-02 -3.3282541812464546e-02 6.2055175595546143e-03  5.9632522003688931e-02 -3.3176893322371233e-02 6.4150696931000607e-03  5.8833352516128486e-02 -3.3025906651774406e-02 5.4429469799086114e-03  5.9103285701635470e-02 -3.3070915661395715e-02 5.1796439787898402e-03  6.0266089251045193e-02 -3.5325228220984023e-02 4.6549387421771548e-03  5.8272036589679783e-02 -3.2867859607573748e-02 4.2657236053824368e-03  5.9460901755540044e-02 -3.5213706465694057e-02 3.8323016642224767e-03  5.7983563020924077e-02 -3.2847205008017410e-02 4.5916874278358706e-03  5.7459464733113058e-02 -3.2652979510753632e-02 3.3836642419640744e-03  5.8689277251589046e-02 -3.5052450905632894e-02 3.0641483074256930e-03  5.7159108279531023e-02 -3.2631778684220694e-02 3.7896710191022173e-03  5.6674840325155761e-02 -3.2417218947878815e-02 2.4835690082753176e-03  5.7958980956637075e-02 -3.4838998583605563e-02 2.2831584331922368e-03  5.6364331182753344e-02 -3.2379073175292920e-02 2.9729337134005141e-03  5.5915811810253443e-02 -3.2163597143757619e-02 1.5272211848119978e-03  5.7267927030462198e-02 -3.4578423970146890e-02 1.4341421936699035e-03  5.5596271476914740e-02 -3.2092773437429271e-02 2.0925602985306987e-03  5.6605056746914857e-02 -3.4285079803007663e-02 4.6616389564746485e-04  5.5162982980812375e-02 -3.1914603715585556e-02 4.8119918103099073e-04  5.4845054581300227e-02 -3.1785986714200874e-02 1.1143445881036920e-03  4.9883207997912890e-02 -1.7767939163275560e-02 1.4944623834711266e-02  4.9436580301585882e-02 -1.6963772443601529e-02 1.4704787891672951e-02  5.0398684007827356e-02 -1.8419161043137424e-02 1.3796845343821975e-02  4.9558828683227342e-02 -1.8071758120237705e-02 1.3388728468304280e-02  4.8583315810291385e-02 -1.6644191074195992e-02 1.4340390483499596e-02  4.9130013025624891e-02 -1.7360299695558440e-02 1.4606876831302577e-02  4.7794738587708004e-02 -1.6315743221057114e-02 1.4038430218359335e-02  4.8411486119886701e-02 -1.6944300838879028e-02 1.4325805181255858e-02  4.8747668517204704e-02 -1.7692303936926602e-02 1.3039965521963744e-02  4.7034485455202023e-02 -1.5981329288055460e-02 1.3769720209022267e-02  4.7705199326050662e-02 -1.6526434009197229e-02 1.4075720894965338e-02  4.7940159369422169e-02 -1.7298778158178946e-02 1.2731199314513176e-02  4.6283178637482145e-02 -1.5633454993140606e-02 1.3517996531375590e-02  4.7007013051224511e-02 -1.6097954824960913e-02 1.3839999316997911e-02  4.7138715790414301e-02 -1.6881213435724081e-02 1.2445913054729005e-02  4.5519500855835650e-02 -1.5254551086535353e-02 1.3277701145858144e-02  4.6313407753339746e-02 -1.5641982570293568e-02 1.3612324929595689e-02  4.6344716203404128e-02 -1.6414517193352695e-02 1.2177522013867081e-02  4.5620294658974055e-02 -1.5115719714205904e-02 1.3401331047146213e-02  4.4701316109016724e-02 -1.4815038603026571e-02 1.3050626659059690e-02  4.5573890368333370e-02 -1.5857118116779870e-02 1.1925009603405432e-02  6.1232441244241417e-02 -3.4139798823892085e-02 5.8309521786105278e-03  6.0291890537482892e-02 -3.3249579881999766e-02 6.2265876862353364e-03  6.1359629840763916e-02 -3.5362053793086906e-02 5.4263576142399789e-03  6.0560142375824265e-02 -3.5223709766725071e-02 4.4124821081298789e-03  5.9481212367969265e-02 -3.3028302462647839e-02 5.1712893625733636e-03  6.0408724514527251e-02 -3.3944581493841601e-02 4.7810684619611797e-03  5.9563447945736113e-02 -3.3763731458088253e-02 3.7978511507258069e-03  5.8650080741048799e-02 -3.2828213377358827e-02 4.2021423794814704e-03  5.9761596697624438e-02 -3.5083150583140404e-02 3.5154835066350046e-03  5.8738943217920968e-02 -3.3563816696545443e-02 2.8416569822873640e-03  5.7834947778868759e-02 -3.2621798820774574e-02 3.2614923336236317e-03  5.8990261509289751e-02 -3.4914003706282004e-02 2.6534382103535680e-03  5.8256433016565100e-02 -3.4711496620649242e-02 1.7776631421207816e-03  5.7045777171298946e-02 -3.2400739256594105e-02 2.3123984405417253e-03  5.7939099890670767e-02 -3.3347601071894752e-02 1.8839034629197474e-03  5.7557795172278686e-02 -3.4482354770781556e-02 8.4499185717839935e-04  5.6275198151745288e-02 -3.2175850480877635e-02 1.3182555530706123e-03  5.7161540004711339e-02 -3.3123504498656149e-02 8.9045025909482837e-04  5.6886387648695143e-02 -3.4237099877941643e-02 -1.8928593856001554e-04  5.5518685322346863e-02 -3.1956518330585007e-02 2.5327420565246229e-04  5.6410317138871187e-02 -3.2891974614366541e-02 -1.6607368083529288e-04  5.6166576467852947e-02 -2.2387024469166138e-02 7.7559487697305600e-03  5.6028525220561932e-02 -2.1523030560825204e-02 7.1147992817703603e-03  5.7842371843728015e-02 -2.4575065967517688e-02 6.9232563643404962e-03  5.6451375337129392e-02 -2.5274878678791305e-02 6.4788619429808096e-03  5.4615846458752011e-02 -2.2397750281993638e-02 6.7269573711346564e-03  5.4795616401179706e-02 -2.3052190518540724e-02 7.2811231001748055e-03  5.3469114266543209e-02 -2.3607116423890830e-02 6.8331841383349936e-03  5.3257465591971899e-02 -2.3144672656317696e-02 6.3531323482383184e-03  5.5092220547074335e-02 -2.5861820969418452e-02 6.0652796067173281e-03  5.2162242385598696e-02 -2.4074179640586644e-02 6.4042398320733850e-03  5.1925388236537758e-02 -2.3802121881081887e-02 5.9886357051804400e-03  5.3741625110713107e-02 -2.6356692265474716e-02 5.6681950452507589e-03  5.0837942987601276e-02 -2.4478845969287545e-02 5.9935709059819953e-03  5.6649620347116618e-02 -2.7667072531472475e-02 8.2057349664376115e-03  5.6617288093190124e-02 -2.6337622850285222e-02 8.2443265738020716e-03  5.7823920146654606e-02 -2.8212809264598075e-02 7.6250751604932127e-03  5.6713861397385545e-02 -2.8371772105200515e-02 6.9466181733406776e-03  5.5501787730810617e-02 -2.6445567093980601e-02 7.5867123340484701e-03  5.5678343299513919e-02 -2.7610845614334467e-02 7.4542968433940690e-03  5.5563135531963813e-02 -2.8449969117075820e-02 6.3450302833840061e-03  5.4351872180055855e-02 -2.6488247977472044e-02 6.9994678657912214e-03  5.4632857815149038e-02 -2.7504380912837880e-02 6.7922477813185580e-03  5.4382370276827283e-02 -2.8452435919361078e-02 5.7887834203708939e-03  5.3175673125114647e-02 -2.6464097330382332e-02 6.4592058004234627e-03  5.3564770766842018e-02 -2.7335846387399811e-02 6.1916984552745358e-03  5.3240536042260346e-02 -2.8350056177578721e-02 5.2858267499794730e-03  5.2001349971141961e-02 -2.6353499352336586e-02 5.9644170812285097e-03  5.2556287327441310e-02 -2.7072665576944967e-02 5.6309332121274548e-03  5.2211571399756039e-02 -2.8084675384271125e-02 4.7713083051615542e-03  5.0930753462211618e-02 -2.6094771658078476e-02 5.5040471231110489e-03  5.1624707582713647e-02 -2.6694331741943030e-02 5.0059982159104755e-03  5.1292157318996029e-02 -2.7656739876789002e-02 4.0973609601103128e-03  5.0010242312584156e-02 -2.5635371760209032e-02 4.9154100660645083e-03  5.0771819253130547e-02 -2.6221839932759550e-02 4.2480905788055924e-03  5.5788539578541595e-02 -2.3176716720324248e-02 8.3354336387530779e-03  5.7791935701381247e-02 -2.5358421740736395e-02 7.3693479854299642e-03  5.6461313810177098e-02 -2.5876416138906670e-02 6.8529763710876183e-03  5.4496634534156235e-02 -2.3589483161199847e-02 7.7881515640613993e-03  5.5151463411611229e-02 -2.6298549030896300e-02 6.3740653094608822e-03  5.3228031919735672e-02 -2.3909882937276621e-02 7.2787348992216045e-03  5.3839417027626783e-02 -2.6636291716247960e-02 5.9220450898585346e-03  5.1961213793518056e-02 -2.4157166988171760e-02 6.8019786521981143e-03  5.2498539836603388e-02 -2.6902276978122638e-02 5.4890640466959423e-03  5.0669336231275210e-02 -2.4341170904142367e-02 6.3537958336023631e-03  5.1178027729875022e-02 -2.7061663015334605e-02 5.1266519239130844e-03  4.9511456723706333e-02 -2.4825057692721631e-02 5.6358392543938551e-03  4.9397100783277734e-02 -2.4434920811667163e-02 5.9852750082988642e-03  5.0072968875550211e-02 -2.6967271767019831e-02 4.8313412525613601e-03  4.8327597064027575e-02 -2.4295114941484692e-02 5.7258870688991527e-03  4.3256282466399815e-02 -1.5031958079658844e-02 1.0626407896635803e-02  4.3931443600542387e-02 -1.6595027637867545e-02 9.3708803634725262e-03  4.1986219125298728e-02 -1.4488340807449684e-02 1.0173957480008454e-02  4.5017655005689904e-02 -1.6421890775433684e-02 9.7436287212418985e-03  4.0886339577794334e-02 -1.4812190975330344e-02 9.8271466160625032e-03  4.2155737404078152e-02 -1.5176517056699621e-02 1.0324233627796362e-02  4.2758336520187387e-02 -1.6871638765025811e-02 9.1326452161536852e-03  5.9450488852663144e-02 -2.8303514069089718e-02 9.0571808175030077e-03  5.8308573993440180e-02 -2.6207248350766047e-02 1.0768357175973643e-02  5.7895760390972655e-02 -2.7086057178011349e-02 9.6123312594582778e-03  5.6951397267653331e-02 -2.6364638428023036e-02 8.8174159369044849e-03  5.7312997475242995e-02 -2.5404953402811677e-02 1.0080126976115364e-02  5.8456695932253257e-02 -2.7682049060075906e-02 8.1807151331743412e-03  5.6027285961432680e-02 -2.5726867324225997e-02 7.9900647661364562e-03  5.6391185434908050e-02 -2.4685761722925383e-02 9.3544875402952754e-03  5.7492064021300325e-02 -2.7102493586375533e-02 7.2626373595821537e-03  5.5138175676640942e-02 -2.5152975703493573e-02 7.1469973379573171e-03  5.3907411295472052e-02 -1.9516290499396734e-02 8.0018322880692373e-03  5.2546940797019978e-02 -2.0337998475467401e-02 7.5673190041978663e-03  5.1247512007221815e-02 -2.1033264750807249e-02 7.1520349878894073e-03  4.9982783045638947e-02 -2.1646059506367388e-02 6.7500347924866477e-03  4.8715436892445785e-02 -2.2214231902113739e-02 6.3627101284174196e-03  4.3142842182185531e-02 -1.6511596146322752e-02 8.8528123853857093e-03  4.4219855751792020e-02 -1.6175399472352383e-02 9.2170200153139734e-03  4.1961393151766190e-02 -1.6976027328039562e-02 8.6069886495350641e-03  5.9351282492067725e-02 -3.0454890561432236e-02 7.3867646702691688e-03  5.8478888344014879e-02 -3.0078904016622342e-02 6.3704036955732910e-03  5.7581340918965204e-02 -2.9735899654354359e-02 5.3509091244468270e-03  5.6712099938704630e-02 -2.9414162620076029e-02 4.3443360120599354e-03  5.5859391258046259e-02 -2.9109618255026466e-02 3.3383523390321762e-03  5.4997534389382589e-02 -2.8829367890234717e-02 2.3127526356760569e-03  5.4125409595181258e-02 -2.8580926778117809e-02 1.2622181101271332e-03  5.9750608568998012e-02 -3.2537797124500598e-02 6.5254119320695613e-03  5.9306585183665585e-02 -3.0621008716729892e-02 6.8784882976198744e-03  6.1122522180207750e-02 -3.3491918952979025e-02 5.9391890664348907e-03  5.8231504462281133e-02 -3.0835163623674333e-02 6.2035811996528365e-03  5.8796981952354041e-02 -3.2641483805808405e-02 5.7587072931723328e-03  6.0071182691805072e-02 -3.3753556018902377e-02 5.3136139823993286e-03  5.7106484454109457e-02 -3.0954110809388435e-02 5.6010763610418899e-03  5.7770463409977921e-02 -3.2655523344045631e-02 5.0803894068319633e-03  5.8969786180602453e-02 -3.3906156580112777e-02 4.7640211229962480e-03  5.5947280827656674e-02 -3.0987005988366435e-02 5.0401176389013895e-03  5.6774491350036232e-02 -3.2564601515036158e-02 4.4703285275891173e-03  5.7833634450550675e-02 -3.3949201809528456e-02 4.2570035406516082e-03  5.4854384866203004e-02 -3.0888531053422503e-02 4.5302404292231055e-03  5.5852875836906436e-02 -3.2350584457797336e-02 3.8549711275733018e-03  5.6780646006770186e-02 -3.3837648058305241e-02 3.7853442765109204e-03  5.3871805790236857e-02 -3.0621436816755394e-02 3.9677256151737549e-03  5.4989429390043511e-02 -3.2028651173311308e-02 3.1577722389361041e-03  5.8199606394770370e-02 -3.0085069869020951e-02 7.3518299960996696e-03  5.7231536426026693e-02 -3.0104687401236521e-02 6.5765783787572491e-03  5.6182386283870990e-02 -3.0062420666690917e-02 5.8877410872199554e-03  5.5139215815099979e-02 -2.9935332353676371e-02 5.2690101348526674e-03  5.4170027295310258e-02 -2.9694101290293179e-02 4.6644252213579943e-03  5.3265787203681379e-02 -2.9344371368664836e-02 3.9792946593167839e-03  5.2399359507861676e-02 -2.8915780371645279e-02 3.1619387099346809e-03  5.4150283989571592e-02 -3.1633896874433812e-02 2.3275386940549122e-03  5.2965166454468769e-02 -3.0215616325452901e-02 3.2380408375013619e-03  5.5581662673826852e-02 -2.5540827959543516e-02 8.7693354343529976e-03  5.4275394400642003e-02 -2.3893307896163181e-02 9.5330276536065729e-03  5.5483707816711823e-02 -2.4051695670103467e-02 8.8266061181823622e-03  5.4310838815437350e-02 -2.4209314274772159e-02 8.2174045320765263e-03  5.3268798611109093e-02 -2.3749857480873802e-02 8.9104605068778889e-03  5.4544719651610320e-02 -2.5521845249511840e-02 8.0934556772155209e-03  5.3133821222329167e-02 -2.4301310559349528e-02 7.6654709919640098e-03  5.2207855205575020e-02 -2.3563189106132580e-02 8.3586058938562684e-03  5.3459035286468712e-02 -2.5450217791187522e-02 7.4906360893978816e-03  5.1943553238317251e-02 -2.4328546765407955e-02 7.1587189394786178e-03  5.1115556283746505e-02 -2.3325464808107037e-02 7.8593701609689648e-03  5.2339924136793975e-02 -2.5325094163133801e-02 6.9400810870803905e-03  5.0732694972275269e-02 -2.4290621327422039e-02 6.6890098050894770e-03  5.0025566920323124e-02 -2.3018539397544620e-02 7.4080739746484577e-03  5.1236713555685480e-02 -2.5115102213992734e-02 6.4447473489832119e-03  4.9576679816868925e-02 -2.4134514594646331e-02 6.2920398923440963e-03  4.9021593590652723e-02 -2.2584037552673106e-02 6.9860252240117847e-03  5.0235076184708433e-02 -2.4761871513643521e-02 5.9608651863884907e-03  4.8616844180583638e-02 -2.3738918700219224e-02 5.8808460634715261e-03  4.8159123556831468e-02 -2.1992444122030066e-02 6.4486141457317471e-03  4.9347894740536753e-02 -2.4254751892671029e-02 5.3169121221283804e-03  5.4230201700251959e-02 -2.0296694395069297e-02 8.7629954296676200e-03  5.2907895636856703e-02 -2.0869823346102243e-02 8.2544183750327231e-03  5.1635293798473279e-02 -2.1344607920400056e-02 7.7745107954871346e-03  5.0389761585411044e-02 -2.1738371411431038e-02 7.3229490100961180e-03  4.9135295802045016e-02 -2.2077550320034552e-02 6.8956855350075950e-03  4.7870436925842641e-02 -2.2372590756950923e-02 6.5180257317875821e-03  4.7470395781515191e-02 -2.2753629520485319e-02 6.0462387051106849e-03  4.6705070055257571e-02 -2.2563957481302521e-02 6.3896529837871247e-03  5.1362192236948032e-02 -1.6780577001951721e-02 8.0833860454126213e-03  4.9280244580826520e-02 -1.5052897181688703e-02 9.0539716861221895e-03  4.8435037815184219e-02 -1.4347456497788687e-02 8.3457681452482110e-03  4.7128180309204640e-02 -1.5273734574577300e-02 8.1118425621434093e-03  4.7986768897992589e-02 -1.5911971758349273e-02 8.6965113943532034e-03  4.9983412844417915e-02 -1.7697217885881262e-02 7.7291656279066595e-03  4.5933202308569787e-02 -1.6063716103125812e-02 7.8115826672536795e-03  4.6815219665556851e-02 -1.6621844307908164e-02 8.3150653572520907e-03  4.8714620891793299e-02 -1.8481660004746651e-02 7.3754003968788629e-03  4.4785039758320037e-02 -1.6798198686567789e-02 7.5026300645646095e-03  4.5697901087916007e-02 -1.7267221976532330e-02 7.9347829638253854e-03  4.7497770825943787e-02 -1.9202515440605153e-02 7.0236409751273966e-03  5.2871397690244168e-02 -2.0648875071555672e-02 1.0535467358531747e-02  5.2290112611103216e-02 -2.0848759257239519e-02 1.1429815469522153e-02  5.1769768671042035e-02 -1.9336961324193658e-02 1.1557494524892948e-02  5.0695498710564876e-02 -1.9267430654669238e-02 1.1042547534015372e-02  5.1325861598339087e-02 -2.0617033906834184e-02 1.0909536013330681e-02  5.1750722689224087e-02 -2.0655190966993055e-02 9.9865057612731536e-03  4.9660843472399997e-02 -1.9139824314096280e-02 1.0587581302793492e-02  5.0365140244746344e-02 -2.0339332308788937e-02 1.0443703990905011e-02  5.0647524648295993e-02 -2.0602512742393542e-02 9.4996331098437751e-03  4.8639260314592300e-02 -1.8973450583864942e-02 1.0178568415379124e-02  4.9385754335988595e-02 -2.0026502323789278e-02 1.0024257424793535e-02  4.9549266973986657e-02 -2.0500548220975419e-02 9.0582608349258718e-03  4.7620596712314889e-02 -1.8766595180953954e-02 9.8035100090134164e-03  4.8404234000219627e-02 -1.9668846936351105e-02 9.6408531967070721e-03  4.8447727116016630e-02 -2.0347448428222906e-02 8.6557144004874680e-03  4.6583128794379799e-02 -1.8497346315652113e-02 9.4731613283153184e-03  4.7452234292105225e-02 -1.9229104891327724e-02 9.2905326720317486e-03  4.7322417256613687e-02 -2.0112708714344087e-02 8.3067403234526205e-03  4.5565327320936676e-02 -1.8039119293331088e-02 9.2193397317977387e-03  4.6612850446480003e-02 -1.8603196281919428e-02 8.9639547306219949e-03  4.6319925346510159e-02 -1.9676267319889987e-02 8.0673145638820391e-03  5.8764863719362202e-02 -2.8179414505294934e-02 7.1031178614662550e-03  5.7090779070982478e-02 -2.5767844252796206e-02 7.9029209549056900e-03  5.58539232