<?xml version="1.0"?>
<VTKFile type="UnstructuredGrid"  version="0.1"  >
<UnstructuredGrid>
<Piece  NumberOfPoints="972" NumberOfCells="4224">
<Points>
<DataArray  type="Float64"  NumberOfComponents="3"  format="ascii">4.835772757098651 2.791863139997921 0.8231085654265681  4.859928352991076 2.966519487149783 0.8183280400299996  4.949323731928574 2.869646665403472 0.8220359210997742  4.843521516621431 2.781842784593771 0.7532801393072164  4.866740759856238 2.970598572727202 0.7452098626654561  4.956062980280707 2.864062794301271 0.7507973375668849  4.873568306354763 2.974639002367988 0.6722999655919009  4.851306776570583 2.771900293154121 0.6837477350422345  4.962797925284274 2.858514698176455 0.6798111205590183  4.880382228919934 2.978634506368365 0.5996339798982626  4.859086882358516 2.761970267253339 0.6143829702742524  4.969527458429766 2.852958361178944 0.6090659181115927  4.976219049453461 2.847393387007213 0.5384750965050916  4.887156881809866 2.982580393679036 0.5271957003041294  4.866828159728683 2.752062490643786 0.5452154866531981  4.98285040471854 2.841799469860263 0.4680650084130542  4.893878821355813 2.986481289898671 0.4549328513053388  4.874502658587133 2.742135600302739 0.4761878719129477  4.882053048121235 2.732132608100691 0.4072860272503801  4.900534241582029 2.990314871835532 0.3827595389055295  4.989456808370991 2.836150255856923 0.397882056176699  4.709524096346447 3.030528688036755 0.8065758533703065  4.733283786945953 2.888674728201619 0.8035550651292183  4.742644950593084 2.88699552847934 0.7308039699302495  4.71765521189012 3.040384835648037 0.7320178373682973  4.725806969042818 3.050195291183732 0.6577506160322433  4.752050743280193 2.885342586023683 0.6583489837492126  4.733953186811149 3.059921594594488 0.5837128138774452  4.761445270030214 2.883679904383109 0.5861482486135013  4.742061800793913 3.069570159566869 0.5098493644625902  4.770803359181032 2.881992620221226 0.5140878462430618  4.750101149920225 3.079159201121689 0.436128967847333  4.780098261258271 2.880271056324534 0.4421743021095001  4.758022200295426 3.088661099344434 0.3625718031084363  4.789213945589674 2.878461392703021 0.3704265041673108  4.826193148315443 3.114464495331196 0.8320526159675583  4.832762776549809 3.130571591078948 0.75822187859904  4.839320707889831 3.146585836301525 0.6847057941302398  4.845870892362726 3.162479751045523 0.6114269808382855  4.85241052951528 3.178244847439229 0.5383156908470513  4.858889485120624 3.193914423191619 0.465352312603208  4.86531251603007 3.209527417697009 0.392553808873009  3.722150852668974 3.025328029388652 0.8162656323410604  3.825497730722695 3.170559946372454 0.830524936866567  3.855976599379781 3.042696080718812 0.8087432398391544  3.845184779579091 3.052093179773321 0.7299172408399719  3.819694539218697 3.193127185184028 0.7517648164465378  3.717385575816528 3.03136733852616 0.7367612734449445  3.834474024867039 3.061436868657389 0.6513024694563077  3.814001527133627 3.21558721435092 0.6731698539744165  3.712692393589652 3.037321700532373 0.6574393264470378  3.823803577156641 3.070685881123105 0.5728731881528679  3.808367856621188 3.237908244736189 0.5947318971638968  3.708039097034201 3.043178682832513 0.5782840791996033  3.813154866962269 3.079859545839802 0.494566055722708  3.802733957204932 3.260104526630825 0.516403241612171  3.703425520406717 3.048977531395446 0.4992388214497565  3.80251017659085 3.089005134860646 0.4163419765803373  3.797060590219882 3.282241537300454 0.4381609908706087  3.698801969886401 3.054751946766937 0.4202857295767784  3.791810095424464 3.098125269887166 0.3382018200612978  3.791277474873271 3.304350378947188 0.3599972154496439  3.694048339761023 3.060522073309135 0.3414431730927923  3.279570601316932 2.912693875381575 0.6092447459975742  3.378443856868513 2.81651810152222 0.620690455555829  3.259810764544264 2.751604375995139 0.6472648908544701  3.256472110445849 2.737044490207458 0.5744973046699285  3.373132317252573 2.804660699198003 0.5459766548915991  3.274988213606887 2.907607260378443 0.5322508341587235  3.253091844800758 2.722485899009148 0.5018069728421301  3.889196771455666 2.429817746526651 0.9168041119062502  4.009979877976614 2.539324876406854 0.8506611535304324  4.024546835361051 2.399958985081481 0.9127232670111758  4.017865423969321 2.371828261720735 0.8529495698804811  4.002484037568657 2.513962682106721 0.7858152364855281  3.880408277124418 2.402552812243542 0.856223942373469  4.011140640514372 2.343760007280813 0.7931911044012412  3.994962555855104 2.488668938732329 0.7210090798086518  3.871573818584828 2.375333489240692 0.7956941760756397  4.004379002071939 2.315748295473622 0.7334632534375121  3.987408951817756 2.463443167766464 0.6562560149988848  3.862695812267338 2.348173330967778 0.7352141193753393  3.997605383888107 2.28774995111154 0.6737879384488289  3.979848346736107 2.438233953929716 0.5915687171051813  3.853806355374683 2.321035106629362 0.6747948375061561  3.990841804651547 2.259715987443957 0.6141813765250402  3.972296772987649 2.412989219278312 0.5269577269117294  3.844941035992138 2.293876469393893 0.6144519743960768  3.984126657207476 2.231585840564439 0.5546556512160238  3.964779967719696 2.387650707858071 0.4624240210288523  3.836165023461747 2.266644797441099 0.5542013784246884  4.38853744187291 2.426156435544905 0.8865530472082751  4.393545286871927 2.573654749748284 0.8300678393413992  4.506103329340281 2.463048783749543 0.8806729050420987  4.511400237478399 2.438780279493171 0.81945646105428  4.397873331625642 2.551121362766317 0.7647198882152438  4.391317298279108 2.400107341994399 0.8260143930921933  4.51681371126633 2.414601995763615 0.7582724677685134  4.402292402799242 2.52868228799264 0.6994243435298292  4.394187966869479 2.374147298662178 0.7654802559528673  4.522276096308402 2.390503149748616 0.6971373577354718  4.406747463199887 2.506320968917198 0.634187471357393  4.397082825882157 2.348247647210023 0.7049799396154256  4.527720008563594 2.366431217217489 0.6360694760455742  4.411189026126294 2.483986722171002 0.5690215766019178  4.399955521386781 2.322363858654221 0.6445379345268188  4.533079805474897 2.342324694687852 0.5750838146660519  4.415558821083992 2.46161325624182 0.5039401485621138  4.402758195673483 2.296440227063772 0.5841754451583261  4.538287288746044 2.318112823829341 0.5141861675731786  4.419791549735211 2.439133486514415 0.4389483580676237  4.405436691305242 2.270415086103693 0.5239071869034657  4.856337497479197 2.680208700966711 0.8534559004802439  4.96981583037611 2.72763370120867 0.8542841617322269  4.978329803399727 2.603846721006456 0.8849193412793007  4.983995396120761 2.585533259524325 0.8214099410596482  4.976706190784066 2.71262920583289 0.7875470237652668  4.864899633809443 2.663035951088048 0.7878103191459452  4.989679220901792 2.567303798436076 0.7580793799296675  4.983603274218536 2.697724872074985 0.7210392824178136  4.873512912690616 2.645956892851059 0.7223341868046192  4.995344748953766 2.54914430217962 0.6949000363627381  4.990490766195546 2.682871193344882 0.6547325902157985  4.882134474237772 2.628941335253899 0.6570308895243501  5.000992060982445 2.531046335002831 0.6318555482999171  4.997347526382589 2.668053728692989 0.5885869146064212  4.890737953491624 2.611971058564245 0.5918678277437036  5.006585983754952 2.512949334474249 0.5689647070769878  5.004149054933904 2.653227252238886 0.5225909158953012  4.89927574486325 2.594994365859309 0.5268414453114002  5.012077689665998 2.494802691615322 0.5062615239846566  5.010854372874558 2.638336716735564 0.4567626000939495  4.907642590989667 2.577956593971791 0.4619889606167025  5.088469379821668 2.79176499782371 0.852572208134546  5.115376907747489 2.656876919423869 0.8819186724210318  5.119972049069553 2.641227863994893 0.8173068048934945  5.095071396736966 2.780284735795491 0.7845518773410119  5.108239813610813 2.757491962668568 0.6492330610847457  5.129133039242435 2.610166046735453 0.6886740484951006  5.101665406083623 2.768876965185369 0.7167845467739261  5.133666369822802 2.594714075949667 0.6245879862146992  5.114776010659194 2.746118282763628 0.581858499432222  5.138165199276657 2.57926071554179 0.5606613754526955  5.121270271362205 2.734729660452908 0.514644954630029  5.142608563328923 2.563759604912179 0.4969229170095164  5.127699853251326 2.723304147664729 0.4475897876254027  3.672016389173439 2.165937242439991 0.9291042672820834  3.788170464831659 2.194001073860056 0.9020729192770331  3.80907314049061 2.087974150959856 0.9514840123998786  3.78107315984964 2.167917517931352 0.8457727782808503  3.665881022281332 2.140919037918856 0.8729547382657046  3.803043091441481 2.063086147573613 0.8966127160973891  3.773964841605658 2.141848200252917 0.7895261320002909  3.659736064683524 2.115914510494426 0.8168603949203412  3.797004845057244 2.038205005765189 0.8417903692135659  3.766872902167437 2.115764019141086 0.7333438220156753  3.653596903831477 2.090902534167427 0.760841110337239  3.790982241315071 2.013310154432674 0.7870230492619444  3.759854031029766 2.089625335406437 0.6772373552695551  3.647497501664601 2.065858304900824 0.7049189908582469  3.785024981407958 1.98838266074744 0.7323170304135477  4.377814902920252 3.473952050817685 1.006789751675619  4.520671254367672 3.497051572133731 1.046808632105603  4.462785480987413 3.421883770589118 0.9567985997446762  4.46570604034946 3.475251255287521 0.8968390389811499  4.522862380525055 3.559358767186026 0.9977970308484098  4.379426058380475 3.534209617661762 0.9532246097670545  4.468621829626833 3.528263803837432 0.8369623089987895  4.525045551624128 3.621293511311847 0.9487171205504817  4.381053097060618 3.594138060406081 0.8996527263474765  4.471533304277458 3.581021700859688 0.777174683504491  4.527220422294955 3.682988558526347 0.8996503002146006  4.382683484342874 3.653845689331687 0.84612249642743  4.474422417677233 3.633612415498395 0.7174514836386342  4.529393858979014 3.744549664911509 0.8506146747443049  4.384305872024428 3.713411408
[...]
<PointData  Vectors="f_16"> 
<DataArray  type="Float64"  Name="f_16"  NumberOfComponents="3" format="ascii">6.3859057324167828e-02 -2.2501959403765436e-02 -1.3093252044099253e-02  6.3871962716094577e-02 -2.2446043366448325e-02 -1.2830528292245092e-02  6.2918667390177055e-02 -2.2654218011576854e-02 -1.2694320839224470e-02  6.4171774637673248e-02 -2.2584305175135346e-02 -1.3531887130521248e-02  6.4215871926248350e-02 -2.2262267318933288e-02 -1.3319858717525095e-02  6.3278648814493785e-02 -2.2639446825745035e-02 -1.3160136810901646e-02  6.4519061602777317e-02 -2.2082804849679030e-02 -1.3703493086617004e-02  6.4426053583751738e-02 -2.2639021214562158e-02 -1.3881946369636916e-02  6.3603178613001604e-02 -2.2601007322904581e-02 -1.3518293097136575e-02  6.4796774354535555e-02 -2.1908523514449791e-02 -1.3994634733390764e-02  6.4643794715041072e-02 -2.2674293697812469e-02 -1.4148386565546588e-02  6.3902772596980087e-02 -2.2557295301500226e-02 -1.3799070859595353e-02  6.4193430897457882e-02 -2.2511727570426739e-02 -1.4010141732696412e-02  6.5066010146386508e-02 -2.1745394391401055e-02 -1.4205659677895938e-02  6.4848558167106732e-02 -2.2690152785100448e-02 -1.4336086430739855e-02  6.4495167581257118e-02 -2.2467556357892104e-02 -1.4158637993779219e-02  6.5338960364758308e-02 -2.1592404174405444e-02 -1.4347466292237541e-02  6.5054756665048646e-02 -2.2688525886991322e-02 -1.4455768298653476e-02  6.5257401671964851e-02 -2.2659774755381574e-02 -1.4524512274437388e-02  6.5632422601680479e-02 -2.1456432486974354e-02 -1.4430525401781349e-02  6.4807945142761295e-02 -2.2431820820284724e-02 -1.4235132776698389e-02  6.5407165630090330e-02 -2.1994467886341348e-02 -1.3081329499983339e-02  6.4966794282869542e-02 -2.2158033225167965e-02 -1.3328494147957651e-02  6.5253898936903171e-02 -2.2091712340356652e-02 -1.3816052813402428e-02  6.5707333776771876e-02 -2.1699875073993482e-02 -1.3572895745279463e-02  6.5948284921233252e-02 -2.1427777866058730e-02 -1.3939678671979636e-02  6.5463297980412199e-02 -2.2020520691674306e-02 -1.4190727603512325e-02  6.6154614885936006e-02 -2.1173867584294296e-02 -1.4205351137754592e-02  6.5634347120190575e-02 -2.1945617432270050e-02 -1.4465039632360760e-02  6.6352647335849960e-02 -2.0938311357035132e-02 -1.4385547592701690e-02  6.5796005776964026e-02 -2.1865799993922606e-02 -1.4655603819031356e-02  6.6559629690709499e-02 -2.0719949156210078e-02 -1.4493430341335630e-02  6.5962601688651076e-02 -2.1777897687131301e-02 -1.4774871179276623e-02  6.6802123432824712e-02 -2.0514844879460196e-02 -1.4532050054187191e-02  6.6142533014648605e-02 -2.1664545232024445e-02 -1.4829914328063219e-02  6.4419161040481732e-02 -2.2398832811432200e-02 -1.2471753375990121e-02  6.4764517768972282e-02 -2.1956561354401299e-02 -1.2929101897330307e-02  6.5069935719208064e-02 -2.1547405473718365e-02 -1.3269471870876315e-02  6.5350764503168429e-02 -2.1172701400150810e-02 -1.3517691773004001e-02  6.5623411912635418e-02 -2.0830634657434576e-02 -1.3690658695037378e-02  6.5901008160997726e-02 -2.0514118676810338e-02 -1.3801196171659732e-02  6.6191671396834739e-02 -2.0217740106133617e-02 -1.3860376766792954e-02  7.5747311662241273e-02 -1.6182019713972359e-02 -9.4622924430630244e-03  7.4848232178020030e-02 -1.6770126282523203e-02 -1.0033557628663850e-02  7.4619160174142204e-02 -1.7044162560216451e-02 -1.0455593633497236e-02  7.4158042412590136e-02 -1.7021790843839851e-02 -1.0858245729520311e-02  7.4585462047770917e-02 -1.6534509668763585e-02 -1.0497068315622029e-02  7.5257675991591347e-02 -1.6234889781255500e-02 -9.8962950201595783e-03  7.3787035748823476e-02 -1.6915402720347316e-02 -1.1178316734954686e-02  7.4346459568927908e-02 -1.6253577895109630e-02 -1.0828790295782561e-02  7.4800456930932263e-02 -1.6218716857223824e-02 -1.0252357578940781e-02  7.3463363170141086e-02 -1.6791693355380454e-02 -1.1420254933829950e-02  7.4142297813003230e-02 -1.5990328519196632e-02 -1.1072604725230573e-02  7.4370601400524608e-02 -1.6178362656820964e-02 -1.0544686802385924e-02  7.3142364252004766e-02 -1.6675733034859030e-02 -1.1590816020205922e-02  7.3938645456894395e-02 -1.5752690242685403e-02 -1.1246993924946873e-02  7.3935085490936053e-02 -1.6135684297718767e-02 -1.0781880840851516e-02  7.2784371757999497e-02 -1.6579378852242137e-02 -1.1700854170815914e-02  7.3710190720186905e-02 -1.5542924224716939e-02 -1.1363924247222643e-02  7.3464052865486185e-02 -1.6099936560068456e-02 -1.0973489517461233e-02  7.2339530285941395e-02 -1.6510664943331074e-02 -1.1772063543066364e-02  7.3440859158742544e-02 -1.5374121308388389e-02 -1.1436377500643120e-02  7.2941799378738514e-02 -1.6070149133495033e-02 -1.1131838178419092e-02  7.7823734376277098e-02 -1.3886075488992646e-02 -6.9218526379373939e-03  7.6767151218779930e-02 -1.4858790872333447e-02 -7.3211664179466960e-03  7.7765105832149350e-02 -1.4270867274297083e-02 -6.1425588835980699e-03  7.7271579926701320e-02 -1.4476351634769128e-02 -6.4097761246795157e-03  7.6241722612751403e-02 -1.5020219480875797e-02 -7.5834135271547693e-03  7.7393054595994562e-02 -1.3991992919808603e-02 -7.2232854973705383e-03  7.6743306767776673e-02 -1.4701575945098898e-02 -6.6958434727711364e-03  7.4117356166310863e-02 -1.8443432489320979e-02 -9.2799753816018224e-03  7.2768732320273616e-02 -1.9213219398651962e-02 -1.0920611990675958e-02  7.2623035124992005e-02 -1.9410513850914995e-02 -1.0265343171483737e-02  7.1914881794282043e-02 -1.9843128183147787e-02 -1.0427645171502442e-02  7.2031113025040991e-02 -1.9560112263015648e-02 -1.1148828190566963e-02  7.3326825618246452e-02 -1.8814493752207968e-02 -9.3723667902190066e-03  7.1308880087203361e-02 -2.0222378817171118e-02 -1.0520089291975038e-02  7.1411243128167101e-02 -1.9863725114213911e-02 -1.1291835812554666e-02  7.2652143296454863e-02 -1.9155287767717098e-02 -9.4351281615754345e-03  7.0749984162853913e-02 -2.0560238516281304e-02 -1.0552917665422011e-02  7.0843156074180971e-02 -2.0130362048121193e-02 -1.1365748932802454e-02  7.2032568368773267e-02 -1.9467803294385942e-02 -9.4628929130310280e-03  7.0195336061433217e-02 -2.0859786124583442e-02 -1.0528727048094115e-02  7.0276371070719129e-02 -2.0360939152862228e-02 -1.1377850474897113e-02  7.1416541135880696e-02 -1.9753609477156708e-02 -9.4539280276152785e-03  6.9606595862630724e-02 -2.1116395423349470e-02 -1.0445624530294829e-02  6.9669345007042666e-02 -2.0550728745642153e-02 -1.1329591270882110e-02  7.0757638200687631e-02 -2.0011562935094884e-02 -9.4047072455748452e-03  6.8947997082834750e-02 -2.1320514150114687e-02 -1.0300169237126866e-02  6.8992443663464770e-02 -2.0695043646921787e-02 -1.1222335375008519e-02  7.0012740417462471e-02 -2.0235655689166809e-02 -9.3069430970135186e-03  6.8390998947525025e-02 -2.1479352062896639e-02 -1.2398095425426634e-02  6.8349194901072677e-02 -2.1359308670350158e-02 -1.3055056631564251e-02  6.7070987482830274e-02 -2.1915018904522760e-02 -1.2764961623056062e-02  6.7003634559007583e-02 -2.2336652149726157e-02 -1.3118063474439667e-02  6.8159766161771690e-02 -2.1705778137408968e-02 -1.3479480245046424e-02  6.8161937630021152e-02 -2.1940816317794834e-02 -1.2733295722355972e-02  6.6898506126429974e-02 -2.2704945664999844e-02 -1.3359880649973793e-02  6.7943842516655417e-02 -2.1999127352919826e-02 -1.3766281625486907e-02  6.7916353812538216e-02 -2.2340612456179548e-02 -1.2947163725299866e-02  6.6769080149165980e-02 -2.3020152413253295e-02 -1.3506957759843239e-02  6.7716890930144380e-02 -2.2241457528884061e-02 -1.3941960949340092e-02  6.7664878757495217e-02 -2.2683206067984869e-02 -1.3062963115357729e-02  6.6628563588761930e-02 -2.3280284760524822e-02 -1.3571235885141301e-02  6.7482482220860285e-02 -2.2431471826444178e-02 -1.4027332238411775e-02  6.7406589304615364e-02 -2.2968727339623834e-02 -1.3094919818024464e-02  6.6477471270886254e-02 -2.3472966460989647e-02 -1.3563489431356161e-02  6.7217828414997544e-02 -2.2544748933636727e-02 -1.4043745783211938e-02  6.7137439097448209e-02 -2.3185837259150431e-02 -1.3054482151248017e-02  6.6277790776537907e-02 -2.3553510452063154e-02 -1.3508033286597245e-02  6.6908785681879315e-02 -2.2559833827365247e-02 -1.4010482024841758e-02  6.6814337036945975e-02 -2.3295454721643797e-02 -1.2965424163017067e-02  6.3485834981661382e-02 -2.2650947703159355e-02 -1.2857827801402382e-02  6.2470447783779519e-02 -2.2794451878789271e-02 -1.2487609879617129e-02  6.2319018200042361e-02 -2.2918213022421804e-02 -1.2195351914638847e-02  6.2638848496218549e-02 -2.3175102709744329e-02 -1.2527698288214768e-02  6.2827432341717671e-02 -2.2957685803819971e-02 -1.2870486339308708e-02  6.3791099121249167e-02 -2.2856957826041219e-02 -1.3232969901037036e-02  6.2913394540680304e-02 -2.3403177222383581e-02 -1.2803270439005568e-02  6.3129777263951178e-02 -2.3087816363620520e-02 -1.3193888718764165e-02  6.4022398128311869e-02 -2.3034561562167915e-02 -1.3540776334818327e-02  6.3159490397803567e-02 -2.3607553878965949e-02 -1.3022097665741353e-02  6.3399695729680877e-02 -2.3195896062003452e-02 -1.3449969397764622e-02  6.4214065832556080e-02 -2.3185225097128673e-02 -1.3775276451099614e-02  6.3395066642355530e-02 -2.3788977135742018e-02 -1.3183385493325895e-02  6.3659384360602242e-02 -2.3288407789300806e-02 -1.3642103255190920e-02  6.4391483232229013e-02 -2.3309672327321736e-02 -1.3939732590971027e-02  6.3639155480034362e-02 -2.3947713501421993e-02 -1.3287649854881853e-02  6.3928233708872531e-02 -2.3367050396408257e-02 -1.3773158426579916e-02  6.4575916990157786e-02 -2.3403834391740746e-02 -1.4040254900408160e-02  6.3907875140362155e-02 -2.4083327689852316e-02 -1.3335145003161674e-02  6.4224311456267655e-02 -2.3432892878156055e-02 -1.3841552300121131e-02  6.4771171557655105e-02 -2.3451336015448090e-02 -1.4086764472390908e-02  6.1427906869290852e-02 -2.2867022101651348e-02 -1.1989871368401125e-02  6.1103344793373378e-02 -2.3021031013413729e-02 -1.1657620944714306e-02  6.1476439564880921e-02 -2.3225392791585510e-02 -1.2008859052649305e-02  6.1843312527783093e-02 -2.2969922618051565e-02 -1.2393884359041343e-02  6.2525862105417190e-02 -2.3089447899758770e-02 -1.3015373126603393e-02  6.2121457138863752e-02 -2.3569844702743994e-02 -1.2553185886160383e-02  6.2199366067053251e-02 -2.3037820470524554e-02 -1.2737065176667142e-02  6.2426492278392268e-02 -2.3719152433591607e-02 -1.2747888065980248e-02  6.2846676851522495e-02 -2.3134925063421481e-02 -1.3233309530192604e-02  6.2743074695257944e-02 -2.3857225199574172e-02 -1.2892563261772643e-02  6.3183581656184637e-02 -2.3179559013966452e-02 -1.3394386336296336e-02  6.3089092562705909e-02 -2.3987638780751035e-02 -1.2991038863213747e-02  6.3562896521686077e-02 -2.3228518350561018e-02 -1.3498188433842826e-02  7.4504432593385059e-02 -1.7925106361391923e-02 -5.9881676713615592e-03  7.3469736218146939e-02 -1.8700117212498861e-02 -7.2727753187524962e-03  7.3209578867127673e-02 -1.8902205802996556e-02 -6.5638715722660295e-03  7.2887574812454642e-02 -1.9064236727633570e-02 -7.2815037882246157e-03  7.3943270689112606e-02 -1.8274335721973338e-02 -6.0112657473961389e-03  7.2673146058651647e-02 -1.9297918779356087e-02 -6.5666278850761003e-03  7.2308558010730176e-02 -1.9413676089114984e-02 -7.2738789917429405e-03  7.3382837801858683e-02 -1.8619611703089126e-02 -6.0338859832603283e-03  7.2138774025816338e-02 -1.9680858622991286e-02 -6.5553729686652022e-03  7.1694506516333523e-02 -1.9752167654729837e-02 -7.2426413335626100e-03  7.2790599442736054e-02 -1.8965690319633882e-02 -6.0524304807195624e-03  7.1572905076078927e-02 -2.0058510209359601e-02 -6.5218385456660161e-03  7.1002301427885023e-02 -2.0081801574769378e-02 -7.1802706304808193e-03  7.2131473525180193e-02 -1.9317731427025947e-02 -6.0594686306476089e-03  7.0938498997880059e-02 -2.0437927770793732e-02 -6.4526762223884194e-03  6.9293730769022302e-02 -2.1978208552949505e-02 -1.0131373764780105e-02  6.7819760725277331e-02 -2.3426092217372175e-02 -9.7944098817750493e-03  6.8426331565202822e-02 -2.1991175970812890e-02 -1.0762231996657681e-02  6.8792420104316868e-02 -2.0975917211311076e-02 -1.0684107113393175e-02  6.8267973660399259e-02 -2.2356712776155030e-02 -9.3788903002541817e-03  6.9713964361595757e-02 -2.0942336368178421e-02 -9.8663771217769695e-03  6.9134083895430423e-02 -2.0116593813501081e-02 -1.0550608286382030e-02  6.8692822031331952e-02 -2.1424728213066124e-02 -8.9870046468236413e-03  7.0117667834749278e-02 -2.0059655152008589e-02 -9.5877676705149167e-03  6.9463925204801241e-02 -1.9351574301520694e-02 -1.0372794494141543e-02  6.9105381559004184e-02 -2.0576598050751280e-02 -8.5863907184661765e-03  7.0516518273857312e-02 -1.9265604323361531e-02 -9.2808050174715499e-03  6.9791058441902296e-02 -1.8647337838519788e-02 -1.0151379769305172e-02  6.9520721954018663e-02 -1.9777672620041181e-02 -8.1615404366275207e-03  7.0917258593774249e-02 -1.8526414642019883e-02 -8.9404947625848306e-03  7.0122294476435573e-02 -1.7987032215739451e-02 -9.8838596085224096e-03  6.9949331842593693e-02 -1.9009475686505611e-02 -7.6998868362709392e-03  7.1325098424882299e-02 -1.7825171358169325e-02 -8.5608354720971107e-03  7.0461866776914475e-02 -1.7360303738243626e-02 -9.5691796577501015e-03  7.0395197206893301e-02 -1.8258339166599611e-02 -7.1996438181730505e-03  7.1747065923818756e-02 -1.7166671449726337e-02 -8.1311446350363342e-03  7.3893487205465014e-02 -1.8039144104607541e-02 -1.0844797795128645e-02  7.2588650113927622e-02 -1.8803808646936378e-02 -1.1882049181215755e-02  7.2568759895226598e-02 -1.9102139354983540e-02 -1.1604250680230790e-02  7.1870354791343058e-02 -1.9340872944936818e-02 -1.1932982982425016e-02  7.1969464461403176e-02 -1.8900631763125557e-02 -1.2263041613354357e-02  7.3160678779403035e-02 -1.8224880454974782e-02 -1.1095177076738221e-02  7.1303722350475343e-02 -1.9548462051051617e-02 -1.2149094610368442e-02  7.1490513059245003e-02 -1.8985765269167086e-02 -1.2529859383655926e-02  7.2583935758566198e-02 -1.8381864043077494e-02 -1.1304953275783328e-02  7.0788652423242338e-02 -1.9730769334361745e-02 -1.2282311170152473e-02  7.1057771280414461e-02 -1.9055125123426365e-02 -1.2709355972213300e-02  7.2058362871441267e-02 -1.8508640753426803e-02 -1.1455087631699067e-02  7.0275809892900942e-02 -1.9889671335141700e-02 -1.2344216925811800e-02  7.0624855224401539e-02 -1.9116081250049741e-02 -1.2810490324853964e-02  7.1523602503253417e-02 -1.8613060858879996e-02 -1.1546101798697523e-02  6.9716262801098286e-02 -2.0006934579576193e-02 -1.2340306471304911e-02  7.0133165103344469e-02 -1.9143870026838018e-02 -1.2842934938393648e-02  7.0931008162115436e-02 -1.8705052197566133e-02 -1.1576552187207712e-02  6.9084178409072466e-02 -2.0080905582754192e-02 -1.2270862017697901e-02  6.9561689542567695e-02 -1.9140065898840847e-02 -1.2804165111125148e-02  7.0239645986131985e-02 -1.8785090528068715e-02 -1.1547847587531671e-02  7.3811984001414824e-02 -1.8452303734703773e-02 -5.2273817106321587e-03  7.2518267888473667e-02 -1.9420311468950544e-02 -5.4330823758996852e-03  7.2046124333134634e-02 -1.9840951735271308e-02 -5.4195338498218603e-03  7.3307909208073868e-02 -1.8819798791277507e-02 -5.2496505828848695e-03  7.1547790084386095e-02 -2.0264773332624868e-02 -5.3903145131260696e-03  7.2777185797659155e-02 -1.9191595289771109e-02 -5.2689319886026834e-03  7.0989517527852569e-02 -2.0704453617914474e-02 -5.3349419958152230e-03  7.2188158621519768e-02 -1.9577763139270520e-02 -5.2816126678158640e-03  6.3428384073354216e-02 -2.2763642769570058e-02 -1.2469309148806729e-02  6.3686938644800808e-02 -2.3083940147167949e-02 -1.2780097376865156e-02  6.3883123011284251e-02 -2.3372067476249939e-02 -1.3033328073197700e-02  6.4043249291391741e-02 -2.3628179875094177e-02 -1.3222973027899440e-02  6.4189669162066393e-02 -2.3850512356420505e-02 -1.3348959932133841e-02  6.4343352140976556e-02 -2.4037018789323954e-02 -1.3414382361326228e-02  6.4500716623919832e-02 -2.4162343643017725e-02 -1.3429165866721018e-02  7.1451038551359813e-02 -1.9902493522383855e-02 -1.1969915058873827e-02  7.1224557513995770e-02 -1.9802561833486543e-02 -1.2457826454980121e-02  6.9987993008486266e-02 -2.0556803905582299e-02 -1.2824728847258991e-02  6.9593859772241459e-02 -2.0839198130366415e-02 -1.3274546429729970e-02  7.0691420844282343e-02 -2.0014323683453270e-02 -1.2902911522525982e-02  7.0846149961966878e-02 -2.0228935215684495e-02 -1.2326210957197827e-02  7.0332325971555171e-02 -2.0504177782853853e-02 -1.2544496836138988e-02  7.0238650370529856e-02 -2.0187753012558294e-02 -1.3186198465955598e-02  6.9227544027633481e-02 -2.1072221482683923e-02 -1.3562090982004291e-02  6.9854750412746969e-02 -2.0740687450065867e-02 -1.2666818480956485e-02  6.9819860075432782e-02 -2.0335724336484232e-02 -1.3361852500540172e-02  6.8874920730322850e-02 -2.1263986554583517e-02 -1.3733893432938406e-02  6.9380991353317892e-02 -2.0940640004477474e-02 -1.2710106255552080e-02  6.9405025157513872e-02 -2.0457186678984489e-02 -1.3454057643592690e-02  6.8521335494385813e-02 -2.1414669204616904e-02 -1.3817588945308471e-02  6.8869437401860328e-02 -2.1084886669946623e-02 -1.2690347538421390e-02  6.8946807852180172e-02 -2.0522174774522298e-02 -1.3480457939694717e-02  6.8128458802277095e-02 -2.1495367063985086e-02 -1.3836990971408442e-02  6.8301950978697706e-02 -2.1170993916331888e-02 -1.2611474646581298e-02  6.8443381701065412e-02 -2.0521932072604773e-02 -1.3443670534844561e-02  6.7691034427594957e-02 -2.1508320136669840e-02 -1.3803902904092575e-02  6.7454008109915670e-02 -2.1956977634629143e-02 -1.1495176399802515e-02  6.6737125423494942e-02 -2.1806748167140295e-02 -1.2217119254526175e-02  6.8095057644882814e-02 -2.1094170781603607e-02 -1.2381440189700150e-02  6.8335773754942861e-02 -2.0397260010403453e-02 -1.2731597174225194e-02  6.7060331070239163e-02 -2.1081868303073754e-02 -1.2525168896033331e-02  6.7793582043632006e-02 -2.1048489760999607e-02 -1.1639320329736280e-02  6.8090703972294761e-02 -2.0273458562557148e-02 -1.1685827906772585e-02  6.7310938449774677e-02 -2.0462740025347870e-02 -1.2714136579185159e-02  6.8537362701809254e-02 -1.9812186808401352e-02 -1.2934212374803111e-02  6.8364100704323055e-02 -1.9584983673121007e-02 -1.1663281860435618e-02  6.7533437074348321e-02 -1.9908804181892406e-02 -1.2816666529628188e-02  6.8719956349952468e-02 -1.9294352049301921e-02 -1.3038606812894425e-02  6.8634432838616796e-02 -1.8955780835039775e-02 -1.1583332198510238e-02  6.7752664228089843e-02 -1.9404030648260458e-02 -1.2849478689514039e-02  6.8897498609168550e-02 -1.8827388130464827e-02 -1.3065648075701370e-02  6.7989148583105286e-02 -1.8937376302986725e-02 -1.2820111599210673e-02  6.8915525187771290e-02 -1.8371291376178586e-02 -1.1449006816268191e-02  6.9078845160408076e-02 -1.8400025489419269e-02 -1.3022770072394293e-02  6.9224517488150200e-02 -1.7824065301305904e-02 -1.1251787451453475e-02  6.8265834763915137e-02 -1.8505052190180900e-02 -1.2723533660023736e-02  6.9266733069521483e-02 -1.8006827513460368e-02 -1.2920269808485117e-02  6.9220829585396909e-02 -2.1507973119316202e-02 -1.1474913156845887e-02  7.0537319537279194e-02 -2.0758353489534278e-02 -1.0319824404882818e-02  6.9064087901594351e-02 -2.1542929318534361e-02 -1.0623429295442932e-02  7.1080705459753243e-02 -2.0218103219058505e-02 -1.0157005481549774e-02  6.9618011141462974e-02 -2.0964462830372316e-02 -1.1232563043198477e-02  6.8852185712931779e-02 -2.1979602429612524e-02 -1.1616499818349503e-02  7.0055342585559358e-02 -2.1233391104519533e-02 -1.0409276958182521e-02  6.8496696324627293e-02 -2.2393084888720872e-02 -1.1673721319697739e-02  6.9604085321034515e-02 -2.1656557641637313e-02 -1.0432060070543208e-02  6.8380545774425872e-02 -2.2529336276257760e-02 -1.0764967991763083e-02  6.9158065611491099e-02 -2.2038174937399267e-02 -1.0390020704392109e-02  6.8143746143377662e-02 -2.2756049847129641e-02 -1.1653951533168101e-02  6.8047354678957825e-02 -2.2950292421000548e-02 -1.0727785009149336e-02  6.8695849283474761e-02 -2.2378857010510303e-02 -1.0277622332385107e-02  6.7776660186164864e-02 -2.3060103786463705e-02 -1.1560455781595654e-02  6.7708397130501960e-02 -2.3327426056989963e-02 -1.0616240438515188e-02  6.8169506691692403e-