<?xml version="1.0"?>
<VTKFile type="UnstructuredGrid"  version="0.1"  >
<UnstructuredGrid>
<Piece  NumberOfPoints="939" NumberOfCells="3988">
<Points>
<DataArray  type="Float64"  NumberOfComponents="3"  format="ascii">2.859243205669689 2.963090850117612 3.948337263935005  2.853315633802437 2.826290491800682 4.025927262071173  2.997751248684766 2.862524970123393 4.013501019162925  2.860176660510477 2.995815547824835 4.003848008357762  2.850037006017567 2.854331767921884 4.084939025659082  2.994776177341594 2.895542947656563 4.070675050490751  2.991763928105214 2.928493502366791 4.127764880005215  2.846729531830692 2.882304264639984 4.1438586976531  2.86106385231994 3.028480220997411 4.059266604851321  2.988701340450031 2.961428601318871 4.184747934555795  2.843374610059997 2.910255411235465 4.202663437351218  2.861902212161401 3.061150335415117 4.114587855756126  2.98557021823212 2.994394897782842 4.241609725528157  2.839951468473607 2.938231609801271 4.261337402078794  2.862688447896161 3.093874647530072 4.169779141663042  2.457681039307306 3.177300804202682 3.713222133004824  2.567849147028682 3.083018267300357 3.75198258841404  2.590341529485928 3.213873630317342 3.661497006504904  2.60090012913469 3.249464845158539 3.712722964332955  2.575126622789554 3.114423464983571 3.806722623786356  2.467285455235374 3.209579268583147 3.767216473831435  2.611334632854301 3.284995701796586 3.763953133094765  2.582334057888241 3.145692711488134 3.861447793641705  2.476801484453094 3.241781230455645 3.821186326880353  2.621697481417077 3.320484438545936 3.815156349990385  2.589479696152853 3.176894722636561 3.916115386543975  2.486265143808692 3.273934933506568 3.87510478782346  2.632052035717146 3.355932473458534 3.866341259518582  2.596592420115246 3.208061873392251 3.970719604398445  2.495721073131345 3.306042673784063 3.928984246774728  2.642430446163439 3.391365230062704 3.917496730143569  2.603703148309897 3.239219130322692 4.025260457723222  2.505191086827672 3.338129438286027 3.982820157650221  2.652872252552539 3.426806851918021 3.968608573809208  2.610833827829158 3.270402415125449 4.079726491933632  2.514702936554919 3.37021393799392 4.03660389258911  2.975466489770794 3.052996926486638 3.963916452887054  3.110094864049846 2.964042902806547 4.036250399966455  2.973921394374294 3.016058150756107 3.911020513971242  2.976951599629385 3.089900493152421 4.016751891513289  3.108551714198577 3.001324417046731 4.091127277961774  2.97839529263278 3.126817947576767 4.069503378246859  3.106953925676286 3.038616325897386 4.145905495518249  2.979815435001005 3.163802966815235 4.122149779177036  3.105314251930177 3.075961300388763 4.200553626864056  3.037485104277719 3.052623679266858 3.714879405338707  3.082324273738312 3.155723522484229 3.620614626364137  2.970723469998635 3.130412042594987 3.659299660152511  2.977085442483511 3.170939977879879 3.707417645847115  3.089162560401963 3.198854196640382 3.666480383871189  3.041633667669929 3.092978050232251 3.764288744833563  3.045695164146265 3.133167932617154 3.813800167860077  3.09586961535733 3.241899636525011 3.712462581173241  2.983343904863409 3.211365737911699 3.755630700739235  3.049672209444761 3.173290722842612 3.863342709545708  3.102485842976654 3.284931330079036 3.758513191664669  2.989517721303178 3.251754420373655 3.803873672731271  3.053593292385719 3.213406763391983 3.912879829065953  3.109062614872809 3.328000806445415 3.804599448599834  2.995655969547755 3.292148415522258 3.852130341234437  3.115649401439921 3.371155587639342 3.850696800849141  3.057492253392887 3.253571548804204 3.96237766228496  3.001793329046811 3.332599721435746 3.900384162294184  3.12229575057787 3.414446035905609 3.89677721666129  3.061395772344254 3.293847592279364 4.011794354933333  3.007969237482556 3.373171165043966 3.948619686859945  2.443970551580863 3.315833054864698 3.625001279771995  2.577792285708411 3.352077734889897 3.565616105753654  2.591492855817802 3.390173393331451 3.614716143149491  2.456705202875945 3.351409060035616 3.676487062958095  2.469306107946542 3.386968109096926 3.727929621204423  2.605039451820419 3.428292687566302 3.663798687103273  2.481860702886153 3.422479559534562 3.779344623129396  2.6185278302103 3.466386517497785 3.712878072323193  2.494413209554226 3.457945512822089 3.830734721668238  2.632016661103395 3.504449198062361 3.761953676715981  2.506997798686751 3.493373834928133 3.882093355433254  2.645556551703366 3.542485400040501 3.811016556495593  2.519656191426783 3.528768772135739 3.933407553576109  2.659204115533098 3.580489152328511 3.860048916094354  3.173959613706581 3.184631014774613 3.848176279495837  3.177208281370874 3.227536135405954 3.896218503884163  3.180431244275497 3.270529154412568 3.944242970963267  3.183675309560144 3.313680484017608 3.992199867733167  2.267936284113912 2.692751510029201 3.899664879659639  2.392483590961954 2.812792469557434 3.876102857160163  2.255377305545724 2.83680005849232 3.869317030174541  2.255905981938801 2.851375859039901 3.93129594331009  2.392215585112827 2.830030643275609 3.937404138531961  2.26600549928511 2.703111349291361 3.962315509381535  2.264166050703659 2.713335554729331 4.024885387715507  2.392022772261805 2.847114419504249 3.998624674543214  2.256529585697978 2.865811262699155 3.993162842435354  2.262395699223094 2.723456910809164 4.087338103945082  2.391858999451904 2.864084372193456 4.059738126264826  2.257193849144568 2.880143285607032 4.054939277243538  2.26063319240485 2.733524584774575 4.149684534145226  2.391682009453623 2.880996091879036 4.120749346004478  2.257852281979264 2.89442318481787 4.116616162310947  2.258809037329661 2.743600304492686 4.211916135081939  2.391446993563724 2.897902611070204 4.181646946032085  2.258447428697102 2.908706961838534 4.178188731262174  2.256848147844251 2.753755025640359 4.274017880828033  2.391105522767343 2.914868067010951 4.242408441945057  2.258914232707262 2.923064933825837 4.239645565663559  2.915718560992153 3.063195574837398 3.719423274519314  2.920961012922287 3.101800813955695 3.769650131324818  2.926115518820328 3.140252286448316 3.819950647054586  2.931187243903443 3.178640227604495 3.870248999081003  2.936219158611275 3.217008047271778 3.920530918181061  2.941240332876717 3.255410757874767 3.970779058215258  2.946277963388516 3.293901032290649 4.020973466917201  2.861756510671787 3.159383276036017 3.649150479056809  2.869609492068861 3.198295701347035 3.697992089950591  2.877353768204133 3.237126516620591 3.746896779712086  2.885016656695507 3.275925287988032 3.795817314694661  2.892651169369648 3.314712256048725 3.844743201044362  2.900294558808297 3.353526202301197 3.893654820476317  2.908001122115324 3.392414159886094 3.942536636288148  2.340535144198933 3.27100012863874 3.680662824454878  2.351592617012579 3.304239044959843 3.734603492942276  2.362551854968642 3.337436631121783 3.788489442201223  2.373484633423879 3.370570933641829 3.842329776437573  2.384417729393879 3.403659096560385 3.89613409099882  2.395368320419084 3.436713252090939 3.949901103568599  2.406360121308146 3.469738197801976 4.003630043822809  2.328988907401669 3.403561966147255 3.594808296851073  2.341324535387296 3.440972645813948 3.646300952503951  2.353562362623849 3.478368715601196 3.697718481334973  2.365787284345808 3.515713870788524 3.749107706125593  2.378016963370884 3.553010088200518 3.800468149344738  2.390267091480313 3.590253399235628 3.851796096695285  2.402563063843648 3.627437874445056 3.903065694052457  2.47414001936727 3.562962702041555 3.682040871679463  2.341048259624978 3.647986321361515 3.652391456529446  2.488269824476233 3.60221430262105 3.731009380747612  2.353981469119268 3.689229782664969 3.701286498726955  2.366933957357631 3.73041483028836 3.750148706757765  2.502434184199912 3.641409340125469 3.779953448926059  2.516686527806903 3.680550881940198 3.828869440158085  2.379934889303793 3.771516863956109 3.798953758666619  2.160497995552888 2.739848361718586 3.890371726333004  2.159530293202248 2.75059030455425 3.953155534838789  2.158689038571849 2.76119306380102 4.015824698124801  2.15791897281698 2.771691708361079 4.078412387697893  2.157156497712888 2.782142249068665 4.140905315785341  2.156321109509136 2.792611418299663 4.203298378082228  2.155332807149086 2.8031661110516 4.265576536028861  2.121051990350848 2.866784019481913 3.863953270938609  2.121391965323009 2.880765671030071 3.926315573148451  2.121869226876456 2.894630318460572 3.988595022201955  2.122410206967475 2.908411240388223 4.05079820597027  2.122954084334204 2.922143108359769 4.112924493627844  2.123426866760211 2.935882175164959 4.174963881865583  2.123758456751706 2.949683668058677 4.236910340651207  2.742849554670578 2.919172685954292 3.975307689859584  2.743516585104512 2.890401938742361 3.917631315508185  2.742164589756842 2.947823228051085 4.032914075001369  2.741444367858988 2.976410674757926 4.090429249894157  2.740673657617335 3.004984117131002 4.147833394918505  2.739829259347378 3.033598503516546 4.205092012898512  2.972313988181754 2.979012415471084 3.858105221888468  2.788848854112357 3.100692904035527 3.704501794254119  2.796222611500116 3.137573106048313 3.755292013395109  2.803494897392315 3.174323553758293 3.806130325744092  2.810686068227465 3.211019598558856 3.856955307364275  2.817844969429053 3.247691116988685 3.907758095458897  2.825005843820894 3.28437361326971 3.958524483839114  2.83220645461488 3.321110714733264 4.009233107235717  1.512751845252476 3.042685037436229 3.794933698277688  1.637697248200173 2.996419306254452 3.816959006130713  1.648846648082471 3.106533052023575 3.783612856401508  1.645860585420884 3.127554462369441 3.844953923472299  1.633491661907947 3.013223232355633 3.879263051876291  1.50767742818564 3.060774686162001 3.857072487181711  1.643297553610275 3.148728074338301 3.906435479479848  1.629725071819713 3.030142034389926 3.941723517801561  1.503103662668155 3.079080562332861 3.919483741586785  1.640877721812079 3.169950
[...]
<PointData  Vectors="f_16"> 
<DataArray  type="Float64"  Name="f_16"  NumberOfComponents="3" format="ascii">7.5609325657787246e-02 -1.8924173769214563e-02 9.7408835643871816e-03  7.5072368797821282e-02 -1.8938702529392868e-02 1.1417571852651017e-02  7.3608691769426596e-02 -2.0628705042426847e-02 1.0766006238941462e-02  7.6093211241725203e-02 -1.8378384736856074e-02 9.7927991640090247e-03  7.5345457452989484e-02 -1.8392631728526166e-02 1.1550154886781778e-02  7.3983098660888313e-02 -1.9984314200240789e-02 1.0819978714274318e-02  7.4338922187112522e-02 -1.9356428758569338e-02 1.0855370332542245e-02  7.5607152277282416e-02 -1.7864351267388737e-02 1.1653494938892024e-02  7.6566365301734218e-02 -1.7840339600819460e-02 9.8365714089255346e-03  7.4685968932556218e-02 -1.8720341081379339e-02 1.0866108398480808e-02  7.5857369722861834e-02 -1.7337459285035665e-02 1.1727491841075761e-02  7.7044381839366780e-02 -1.7287617998090810e-02 9.8642316343692058e-03  7.5022684811753323e-02 -1.8050753851352210e-02 1.0846440816662401e-02  7.6096664046143125e-02 -1.6801441457114662e-02 1.1765131907858760e-02  7.7547094880796807e-02 -1.6699861889441864e-02 9.8668966505295434e-03  8.0317700138860137e-02 -1.3110682439937594e-02 8.3878481039661116e-03  7.8517154086113761e-02 -1.5211699863252057e-02 8.6479517395106498e-03  7.8469657058628337e-02 -1.4954212472527378e-02 7.5202537320957410e-03  7.9439557725183713e-02 -1.4751443751701251e-02 7.5263449610172180e-03  7.9272210462950132e-02 -1.4907177815619163e-02 8.7632127771615255e-03  8.1100923400654473e-02 -1.2897067201260801e-02 8.5031403040548830e-03  8.0322534860501435e-02 -1.4542361688373568e-02 7.5314725199552889e-03  7.9906236097533861e-02 -1.4589931624177301e-02 8.8432128043221016e-03  8.1792440818074894e-02 -1.2680837670983694e-02 8.5868977081478576e-03  8.1155582528211007e-02 -1.4327012606446721e-02 7.5272494371341472e-03  8.0509855184112813e-02 -1.4277028518290123e-02 8.9084414732519494e-03  8.2437848831236601e-02 -1.2464941179076013e-02 8.6429053743838705e-03  8.1980498582920877e-02 -1.4110322973214429e-02 7.5082953437182205e-03  8.1114280698710170e-02 -1.3968904039626884e-02 8.9545671033692438e-03  8.3078297817475499e-02 -1.2256417057095702e-02 8.6702878544100762e-03  8.2835533323974364e-02 -1.3897070819955075e-02 7.4703747140113198e-03  8.1747247980276189e-02 -1.3663213024969062e-02 8.9791064036869941e-03  8.3747336844446699e-02 -1.2060844347080223e-02 8.6674502110568319e-03  8.3756352209432491e-02 -1.3690967502118602e-02 7.4113756877556567e-03  8.2437003737517167e-02 -1.3357098583034006e-02 8.9811851880347796e-03  8.4479532831563980e-02 -1.1887763580698926e-02 8.6293203034591426e-03  7.5105988600655357e-02 -1.9991434318050637e-02 8.6003576202992697e-03  7.3118686406765915e-02 -2.1421028072431320e-02 9.5677322211578687e-03  7.4506234265458895e-02 -2.0594108627551809e-02 8.6358791247723790e-03  7.5694646973896801e-02 -1.9387407038183854e-02 8.5696044033486962e-03  7.3559278424701724e-02 -2.0708029881847674e-02 9.5271425902181354e-03  7.6289996298076534e-02 -1.8755750453544929e-02 8.5339156283897998e-03  7.3993217607849507e-02 -1.9968373465484815e-02 9.4741360479369489e-03  7.6915055626417331e-02 -1.8066509615937160e-02 8.4894107707693019e-03  7.4423416872812231e-02 -1.9195618431916046e-02 9.3768894580256706e-03  7.2297218505489327e-02 -2.3161313287462099e-02 6.8939344895171725e-03  7.1933210073068909e-02 -2.4214448631147131e-02 5.1772844801280934e-03  7.3206448675730715e-02 -2.2011036374938328e-02 6.1612368796413490e-03  7.4294987609228785e-02 -2.1612498201332851e-02 5.9779104230574844e-03  7.3082152304853987e-02 -2.3832720114678626e-02 4.8919405267453357e-03  7.3305351989945228e-02 -2.2642492937158306e-02 6.7098824212257439e-03  7.4156500450875198e-02 -2.2084271645986423e-02 6.5496415438328721e-03  7.4088104037527233e-02 -2.3396322838864121e-02 4.6495828745783830e-03  7.5252171822299513e-02 -2.1176975013858200e-02 5.8172873952205507e-03  7.4947847471960774e-02 -2.1512715542823680e-02 6.4242417566151323e-03  7.5050118711857863e-02 -2.2917097179048055e-02 4.4597546838872470e-03  7.6166987507647443e-02 -2.0716056436468802e-02 5.6959978861188688e-03  7.5728546771451993e-02 -2.0915002103045924e-02 6.3240647496126175e-03  7.6009741378597950e-02 -2.2389624139457161e-02 4.3095704477319179e-03  7.7078626733421404e-02 -2.0225874114270168e-02 5.5977297165706423e-03  7.7002314992488594e-02 -2.1800027480399300e-02 4.1862974990992318e-03  7.6523926292117558e-02 -2.0271225337931513e-02 6.2357734575392218e-03  7.8017590707489995e-02 -1.9691303291464016e-02 5.5190271897163738e-03  7.8066669738278610e-02 -2.1133571008340835e-02 4.0802622689630327e-03  7.7360317411095947e-02 -1.9547678955078546e-02 6.1588267862035216e-03  7.9017670472613225e-02 -1.9109590335575063e-02 5.4462101758553910e-03  8.1088886192571152e-02 -1.2143852125620858e-02 7.5410226471221047e-03  7.9351867633816339e-02 -1.4047798899946144e-02 6.5652074161223380e-03  8.0462952657969627e-02 -1.3990162687058404e-02 6.5544092045363885e-03  8.2028175485559893e-02 -1.2029287756005957e-02 7.6180521355088075e-03  8.2868330647264177e-02 -1.1914605528740024e-02 7.6661453464273001e-03  8.1482331773049921e-02 -1.3914240560191870e-02 6.5323848936572147e-03  8.3660592679210111e-02 -1.1805708393884361e-02 7.6828659668461393e-03  8.2455932280559738e-02 -1.3829932353611681e-02 6.4973783595890216e-03  8.4443464236384089e-02 -1.1707940142771244e-02 7.6661094931794235e-03  8.3422238756837241e-02 -1.3746388307640960e-02 6.4441298730413656e-03  8.5251893027412484e-02 -1.1628598801550769e-02 7.6133005135573702e-03  8.4420954766732448e-02 -1.3674806696722141e-02 6.3683757849304053e-03  8.6119094239971009e-02 -1.1576161974361350e-02 7.5200412657068618e-03  8.5488444387319423e-02 -1.3632245603917797e-02 6.2604861063261666e-03  7.3613256258448473e-02 -2.3581118263614906e-02 5.5834249183904314e-03  7.4373210833911310e-02 -2.2894425797050245e-02 5.4222928451238429e-03  7.5147299346736710e-02 -2.2138732606349062e-02 5.2851642248676499e-03  7.5965653212635362e-02 -2.1302741011174287e-02 5.1481929150501730e-03  8.1767707623839642e-02 -1.3496410227798451e-02 1.0677757558136514e-02  8.0392638866446653e-02 -1.4213702807443189e-02 1.0518652733229744e-02  8.2327508459103443e-02 -1.2597323898145628e-02 1.0221987815523524e-02  8.2414869300384830e-02 -1.2424952142382595e-02 1.0603888515086299e-02  8.0584463852236290e-02 -1.3988258965478007e-02 1.0907764290772178e-02  8.1702730815896213e-02 -1.3369333529487605e-02 1.1086424821574846e-02  8.1578986323003005e-02 -1.3195439572265719e-02 1.1426245103207991e-02  8.0702976976946852e-02 -1.3725139770315501e-02 1.1207144485626945e-02  8.2442287750254820e-02 -1.2217517176799171e-02 1.0912134358669084e-02  8.1403948847894619e-02 -1.2983781067757647e-02 1.1709212678846873e-02  8.0740785812386320e-02 -1.3416453281892993e-02 1.1441084032056173e-02  8.2404274610112932e-02 -1.1968253726107218e-02 1.1157025619041415e-02  8.1208924243344277e-02 -1.2763533590203997e-02 1.1943168618870797e-02  8.0767951616302000e-02 -1.3116967936565183e-02 1.1633778751487196e-02  8.2350099809491428e-02 -1.1714065119108394e-02 1.1358845623154404e-02  8.1027159094522530e-02 -1.2560377038957361e-02 1.2145225215473430e-02  8.0809062425375985e-02 -1.2833443613355401e-02 1.1797229713071735e-02  8.2320712658691633e-02 -1.1482175118254313e-02 1.1530029410113765e-02  8.0870373373097382e-02 -1.2371367163781701e-02 1.2329022076897917e-02  8.0867277143698582e-02 -1.2559931505382963e-02 1.1937318041815928e-02  8.2321500346478532e-02 -1.1263438169021939e-02 1.1671330496134599e-02  7.3761468571466302e-02 -2.0997137746839690e-02 7.3070121671754617e-03  7.4750882268392813e-02 -2.0539679324622046e-02 7.2066837227336440e-03  7.5588982458635851e-02 -2.0055950431439477e-02 7.1094348061985346e-03  7.6382604294835912e-02 -1.9566785519110508e-02 7.0350240334907631e-03  7.7170331882322182e-02 -1.9061737148130153e-02 6.9751951753710224e-03  7.7981896234644577e-02 -1.8522300124031481e-02 6.9220901562700244e-03  7.8848752636425906e-02 -1.7930731771364283e-02 6.8733739578444178e-03  7.4585298619332732e-02 -1.9940354481844114e-02 6.4352437338779074e-03  7.5659459344554134e-02 -1.9619511632556062e-02 6.3016062701752203e-03  7.6633979494703033e-02 -1.9270532692008679e-02 6.1947838210800630e-03  7.7567096116818252e-02 -1.8899960559517065e-02 6.1119776307017532e-03  7.8494544804245808e-02 -1.8508610972150563e-02 6.0430261820131901e-03  7.9452437057874359e-02 -1.8089943119615828e-02 5.9825751361703098e-03  8.0485245182220333e-02 -1.7628274448460605e-02 5.9385961186206714e-03  8.2434723555416853e-02 -1.0966638137643904e-02 8.2233884109097505e-03  8.3197372034865574e-02 -1.0800160449147975e-02 8.3828012234050397e-03  8.3862003283397088e-02 -1.0648075639278925e-02 8.4868204642364435e-03  8.4483667319681835e-02 -1.0510362870486749e-02 8.5463704453521833e-03  8.5099514297608383e-02 -1.0387605746481246e-02 8.5635117653208876e-03  8.5739963833461511e-02 -1.0284876029542771e-02 8.5370769382755920e-03  8.6435182761429669e-02 -1.0212037294037515e-02 8.4616886724166208e-03  8.3378526352180737e-02 -1.0028206879420106e-02 7.5048641831392251e-03  8.4240346084347897e-02 -9.9205792723837428e-03 7.6510306790818893e-03  8.5016592462692775e-02 -9.8335061755417136e-03 7.7352586042003374e-03  8.5753520516761439e-02 -9.7661881049658384e-03 7.7702752776340357e-03  8.6481856733553408e-02 -9.7207984799732028e-03 7.7594135995351348e-03  8.7225697984461600e-02 -9.7033794715316295e-03 7.7011242651828090e-03  8.8004820941717243e-02 -9.7237529131740785e-03 7.5876453117950590e-03  8.5006628614178362e-02 -1.1145863175664062e-02 6.9125334345104443e-03  8.7107613326903796e-02 -8.8913528525848447e-03 7.1712462560307262e-03  8.5892538292104359e-02 -1.1142595372054592e-02 6.8718162919775829e-03  8.7888037692653714e-02 -8.9120684411831651e-03 7.1515034798822668e-03  8.8675455737303913e-02 -8.9622899181253639e-03 7.0826797085089795e-03  8.6797222661909382e-02 -1.1162806607126341e-02 6.7925932944070443e-03  8.7748488625316409e-02 -1.1216887363635856e-02 6.6652053507344758e-03  8.9484454219056667e-02 -9.0484286200903409e-03 6.9583354897408758e-03  8.3320602397062876e-02 -1.2167309313963037e-02 1.0246359023307609e-02  8.3224978315102713e-02 -1.2045029349992221e-02 1.0641837276242091e-02  8.3073016639803252e-02 -1.1881699370053726e-02 1.0968492096671336e-02  8.2876881429912480e-02 -1.1682324600572920e-02 1.1240025324184756e-02  8.2669496307281737e-02 -1.1474889256471568e-02 1.1467334475752024e-02  8.2486900205479205e-02 -1.1289140033947915e-02 1.1663754283827751e-02  8.2335859362051012e-02 -1.1122244583072313e-02 1.1824746473736353e-02  8.4255879198126618e-02 -1.1017371771453930e-02 9.8326835376182416e-03  8.4247165904280677e-02 -1.0881190971173176e-02 1.0204967879401840e-02  8.4194619795575132e-02 -1.0709005806094877e-02 1.0505895887133840e-02  8.4088640501226747e-02 -1.0494699174117657e-02 1.0747657316876370e-02  8.3976322001653100e-02 -1.0277972981330773e-02 1.0945455679543551e-02  8.3891806003265096e-02 -1.0084377069043591e-02 1.1108812075044499e-02  8.3842338392606228e-02 -9.9087802025460379e-03 1.1238923340755996e-02  7.6799850239533451e-02 -1.7452840863843685e-02 1.0537439490086753e-02  7.6361881100753190e-02 -1.7946321204737006e-02 1.0372541372271527e-02  7.7169305584447415e-02 -1.6952938950449394e-02 1.0659971880301012e-02  7.7533643598353019e-02 -1.6469335106824499e-02 1.0760610087230496e-02  7.7901842312521591e-02 -1.5983440892100895e-02 1.0840335799219298e-02  7.8275823914440684e-02 -1.5483876620556451e-02 1.0888231924912582e-02  7.3841066655053106e-02 -2.1202294581883881e-02 8.6753095136277228e-03  7.5408069334366043e-02 -1.8744186573333557e-02 7.4819093569037255e-03  7.6378282647675169e-02 -1.8380700472003113e-02 7.4298031746849657e-03  7.7221182420094112e-02 -1.8001972791040422e-02 7.3804213518135651e-03  7.8022275809774416e-02 -1.7618792679572629e-02 7.3445171656540530e-03  7.8819971173851339e-02 -1.7225938508442590e-02 7.3115138319272662e-03  7.9647095055677936e-02 -1.6813789511968654e-02 7.2764224572692037e-03  8.0542315806417686e-02 -1.6365255807697755e-02 7.2448041256811986e-03  9.2249687272423039e-02 -4.8596476413216702e-03 6.4310238253897064e-03  9.0779312670507040e-02 -5.9602836185952343e-03 7.3165371681595424e-03  9.1011037478073709e-02 -5.4546376840748784e-03 7.2225027905240260e-03  9.0778651580975062e-02 -5.3821038192038628e-03 7.5026443781722602e-03  9.0505756558238226e-02 -5.9187623647972533e-03 7.6021756920130771e-03  9.1948726712144338e-02 -4.8370181172687106e-03 6.6946884976243418e-03  9.0571975130122648e-02 -5.2968551337681429e-03 7.7403226050100716e-03  9.0227158749589059e-02 -5.8321858867228698e-03 7.8492998858389201e-03  9.1648184365208898e-02 -4.7604643231935117e-03 6.9261812964286056e-03  9.0359275200788819e-02 -5.1807698587529455e-03 7.9388336689024917e-03  8.9928537798978539e-02 -5.6978984458791633e-03 8.0613041926475993e-03  9.1331819488440560e-02 -4.6361884529776930e-03 7.1319825890038546e-03  9.0128942411879978e-02 -5.0389096013180980e-03 8.1053652949534486e-03  8.9631873679040172e-02 -5.5545357979784040e-03 8.2483525715874549e-03  9.1019903044264258e-02 -4.5040216236006967e-03 7.3226003388302020e-03  8.9903292847843874e-02 -4.9133060579987561e-03 8.2498424023420402e-03  8.9345008537018905e-02 -5.4247107123886109e-03 8.4137996407609196e-03  9.0712516429788947e-02 -4.3801931333307901e-03 7.5002020522890126e-03  8.9676375260597643e-02 -4.8055690815638303e-03 8.3749051625004820e-03  8.9054648606753398e-02 -5.3065711649515693e-03 8.5547216209177646e-03  9.0391211937435753e-02 -4.2619063456417142e-03 7.6620066741449142e-03  8.4726089650853639e-02 -8.8941186233099032e-03 7.9540430994416086e-03  8.5392301449128960e-02 -8.7301640168425138e-03 8.1752747804639380e-03  8.5997775259769899e-02 -8.5994164048795625e-03 8.3145417594810197e-03  8.6574130381364564e-02 -8.4938798057605531e-03 8.3900547057303831e-03  8.7142753630806064e-02 -8.4130702795431438e-03 8.4122189177621119e-03  8.7718210907819200e-02 -8.3608419023030942e-03 8.3826710088492629e-03  8.8311472933057605e-02 -8.3442557836839095e-03 8.2951495151781414e-03  8.2141443839569339e-02 -1.1240553777684242e-02 6.8204420219732283e-03  8.3170176357178272e-02 -1.1199850371525129e-02 6.8869406326632285e-03  8.4111008920787475e-02 -1.1166758463043836e-02 6.9167578419553422e-03  8.4950039530351726e-02 -1.0990540892732298e-02 9.7932776257305693e-03  8.4743481730630149e-02 -1.0909567929517089e-02 1.0176161834017769e-02  8.4492155282257328e-02 -1.0774195295381910e-02 1.0497865392095686e-02  8.4209547036752139e-02 -1.0606466251969204e-02 1.0769890849704870e-02  8.3927270949430893e-02 -1.0436714346078183e-02 1.0999236227782512e-02  8.3666296911671920e-02 -1.0286936379786457e-02 1.1196577106053346e-02  8.3426715188257769e-02 -1.0153430867216602e-02 1.1360438025941879e-02  8.7715798732141192e-02 -7.7354909243335882e-03 7.8000314659485131e-03  8.8343162248489260e-02 -7.7044700451587384e-03 7.8059467821216602e-03  8.8972470891452243e-02 -7.7029828921969055e-03 7.7576095458464162e-03  8.9612134104724434e-02 -7.7342008464215050e-03 7.6503898072400982e-03  8.4088176630977798e-02 -9.6434555329792497e-03 8.5443532260950344e-03  8.4650453890751626e-02 -9.4547601899936436e-03 8.7861395133262757e-03  8.5142555687576615e-02 -9.2899534062422899e-03 8.9436383270667247e-03  8.5608409979539890e-02 -9.1403992500864971e-03 9.0417666718725850e-03  8.6070234436489410e-02 -9.0080777298619918e-03 9.0908665324007203e-03  8.6545159789607598e-02 -8.8999498836653396e-03 9.0919843218761551e-03  8.7044980255488041e-02 -8.8264663005636363e-03 9.0392137575320865e-03  8.5778392968442835e-02 -9.9468970596258977e-03 9.4799894824217548e-03  8.5651232940070848e-02 -9.8476167505734992e-03 9.8437229399278240e-03  8.5483949565375805e-02 -9.7067633345377692e-03 1.0144304768173920e-02  8.5279547796934765e-02 -9.5245293875477303e-03 1.0389942611636605e-02  8.5074032311777903e-02 -9.3389439130376773e-03 1.0594097479882924e-02  8.4895059047308499e-02 -9.1764198029733873e-03 1.0764120671403735e-02  8.4742008829810686e-02 -9.0350927422960733e-03 1.0896181601827159e-02  9.2245526781214310e-02 -4.5043881087839547e-03 6.4989517277978951e-03  9.1995889779658654e-02 -4.4336691559197870e-03 6.7653352614556218e-03  9.1775017815815846e-02 -4.3464896692025495e-03 6.9841548002697656e-03  9.1556689255328158e-02 -4.2332863183821793e-03 7.1703113729299009e-03  9.1323936063694669e-02 -4.0959660865010619e-03 7.3320053132485720e-03  9.1091335721041944e-02 -3.9687028899603417e-03 7.4837265140105967e-03  9.0844004636194159e-02 -3.8595302814635065e-03 7.6126980424160136e-03  8.9614307374767319e-02 -6.8805914234491301e-03 7.2486238593822382e-03  9.0263806910426070e-02 -6.9207145559934081e-03 7.1998719241774143e-03  9.0910066516363533e-02 -6.9896008296069330e-03 7.0921843063748852e-03  7.6264343264296472e-02 -1.7795223587197640e-02 9.1455372492975466e-03  7.4344534867205644e-02 -2.0019561959304755e-02 9.5455365863448272e-03  7.4735511255933584e-02 -1.9615676790321852e-02 8.3532008446861906e-03  7.5606142092448328e-02 -1.9146277822105064e-02 8.3803377044916316e-03  7.5063722066295663e-02 -1.9481227632358482e-02 9.6698774260414976e-03  7.7006264963273424e-02 -1.7362347105901749e-02 9.3013959975189811e-03  7.6314562566085681e-02 -1.8653605477935823e-02 8.3744964984183955e-03  7.7591603705344875e-02 -1.6909845201782479e-02 9.4043291083820146e-03  7.6975452786205711e-02 -1.8167278786039597e-02 8.3737159282499651e-03  7.8115453353897829e-02 -1.6455011192674035e-02 9.4827312592606471e-03  7.7630836878539972e-02 -1.7677053940772271e-02 8.3738060228003459e-03  7.8640316821417686e-02 -1.6011947299849758e-02 9.5489417656715106e-03  7.8306291927068408e-02 -1.7166472956035073e-02 8.3697517884074382e-03  7.9180544417497417e-02 -1.5563748432286799e-02 9.6001046691186389e-03  7.9025176110579645e-02 -1.6617663008678063e-02 8.3576319498830879e-03  7.9753034479132984e-02 -1.5093022754251761e-02 9.6382025703074126e-03  8.3301955053118618e-02 -1.2634232972802464e-02 1.0356700467769037e-02  8.3043269975166104e-02 -1.2569934957835987e-02 1.0750637074539729e-02  8.2735918463581637e-02 -1.2449112782771471e-02 1.1088030901433652e-02  8.2406968860400984e-02 -1.2307736334930713e-02 1.1379485538526442e-02  8.2071108333536646e-02 -1.2158961358678501e-02 1.1628934342114889e-02  8.1746818281104791e-02 -1.2020721205518385e-02 1.1849782008238097e-02  8.1443633054810241e-02 -1.1899622057663184e-02 1.2048177413151466e-02  9.1294232800780889e-02 -6.2362377326589903e-03 6.7839892133412264e-03  9.0575858669525194e-02 -6.4339959386389041e-03 7.3666741985136874e-03  9.1757062234222433e-02 -5.5308286183489101e-03 6.6514956419568222e-03  9.1397666196454008e-02 -5.5212762190325823e-03 6.9243737528230298e-03  9.0231153636799566e-02 -6.4169897038515653e-03 7.6521164780877782e-03  9.0854265103514631e-02 -6.2449741684299656e-03 7.0605248910137787e-03  9.1019471541405592e-02 -5.4437451385046798e-03 7.1719225156610007e-03  8.9874268099877960e-02 -6.3283584133396846e-03 7.9049829919338767e-03  9.0381905045164704e-02 -6.1698353746197912e-03 7.3193104641330088e-03  9.0628217990551208e-02 -5.3262562938855770e-03 7.4014555597436476e-03  8.9502880246644281e-02 -6.1965852886451825e-03 8.1286844078606157e-03  8.9927411540333346e-02 -6.0813762924847945e-03 7.5646858172146942e-03  9.0255397351501676e-02 -5.2120097174163859e-03 7.6137103243241614e-03  8.9146991341525386e-02 -6.0693277845360631e-03 8.3320897467046625e-03  8.9488407279053550e-02 -5.9948226151614343e-03 7.7964478184271496e-03  8.9885869702586746e-02 -5.1027109329097381e-03 7.8111960104703271e-03  8.8794477754620044e-02 -5.9516622389901314e-03 8.5133718279272672e-03  8.9050701302716154e-02 -5.9098577918932733e-03 8.0135498716714625e-03  8.9505770410118535e-02 -4.9945841990753524e-03 7.9918290068941491e-03  8.8422113088521381e-02 -5.8405389179792128e-03 8.6791155514657440e-03  8.8602959890226471e-02 -5.8246328558472773e-03 8.2154075403017036e-03  7.6396797861020604e-02 -1.7496981643765546e-02 6.9545981548419077e-03  7.7436983912