<?xml version="1.0"?>
<VTKFile type="UnstructuredGrid"  version="0.1"  >
<UnstructuredGrid>
<Piece  NumberOfPoints="1003" NumberOfCells="4316">
<Points>
<DataArray  type="Float64"  NumberOfComponents="3"  format="ascii">2.171478137168154 1.309859334646997 1.505424260637562  2.266327400593965 1.416276572378371 1.432023815598247  2.305406424771003 1.304691958039174 1.480703958381454  2.293833213677006 1.272195267170737 1.421047386937245  2.256386709372238 1.387350406335945 1.372224887076698  2.15696502944493 1.275155908974247 1.447731011433955  2.282175595730838 1.239553292974362 1.361440011198881  2.246366343749277 1.358284627696172 1.312459494445362  2.142304003500572 1.240301784247671 1.390157282546023  2.270484304551292 1.206880841079307 1.301829478338095  2.236302120930782 1.329181995054974 1.252694282351362  2.127603588815862 1.205416853463736 1.332618701677491  2.258808674984143 1.17425476931056 1.24217157728487  2.226233869481641 1.30012182086037 1.192893295684815  2.112936064751094 1.170584178000428 1.275050405541261  2.24719007089044 1.141740123203499 1.182422832927253  2.216202292439736 1.271176481351646 1.133019053538971  2.098370405737796 1.135881419076565 1.217393462955147  2.235637388122885 1.109410479614537 1.122548610476684  2.206243149640968 1.242426638974518 1.073013917584397  2.08396381816333 1.101375190776417 1.159577855227305  2.118907520557077 2.67724748322519 0.8470006506761207  2.19583443823808 2.573452765945556 0.8991103911558596  2.070273019548794 2.52343715427923 0.9166980903556573  2.077208127614695 2.491681784506147 0.8542569484135906  2.199429290588021 2.542699787354559 0.8345041951557164  2.125450536385045 2.650552308857423 0.7783874443569118  2.084228372063889 2.459929441115712 0.7918101052519506  2.203073756797999 2.511930167632984 0.7699022569415455  2.132047484966462 2.623860374521235 0.7097680158711294  2.091309696443829 2.42817191462057 0.7293444567480498  2.206762393153269 2.481146284019566 0.7052953530345101  2.138688240551299 2.597153223454984 0.6411420388328762  2.098405878253355 2.396382824226297 0.666863726493951  2.210460526711067 2.450332908175924 0.6406866359196753  2.145338057588504 2.570416921211812 0.5725093020396307  2.2141432702173 2.41947260597458 0.5760881894727927  2.151975161561757 2.54363072963142 0.5038786083698077  2.105480523071096 2.364531772707808 0.6043832905397021  2.217814273094299 2.388573858465132 0.511499864372764  2.158591598856997 2.516787160055554 0.4352473389606409  2.112496061153375 2.332621344659554 0.5419222933460909  2.364546205299263 2.068719226109992 1.167084175005611  2.451092077502237 2.182216092197378 1.110734044669502  2.488677200063918 2.032695312667722 1.175186548539333  2.485844062163256 2.008934583906315 1.117808948857671  2.449441214418546 2.154950123677402 1.053289534029942  2.362997380912755 2.043352025486791 1.109986929677849  2.361466665049976 2.01801429527365 1.052872437819488  2.447804067667725 2.127701693210768 0.9958432681704744  2.483008074496295 1.98519793697831 1.06042070814903  2.35993080246027 1.992698878405088 0.9957369509284891  2.44617335071305 2.100464911806218 0.9383924378470571  2.480161652458699 1.961471322232308 1.003024513077387  2.358382171398155 1.967365728763672 0.9385867948010616  2.444524045881999 2.07322326773683 0.8809395090936363  2.477288177126619 1.937745248034914 0.9456245087069159  2.356816375911399 1.941964408472779 0.881426426574328  2.442855690962623 2.045922394464775 0.8234977546541681  2.474386062912941 1.913991921387302 0.8882213142052765  2.355227565946931 1.916457686186253 0.824274762704548  2.441185204937754 2.018520452942468 0.7660837049803439  2.471500021928948 1.890136763405394 0.8308123058552099  1.967923772750005 2.765259219687525 0.8005168680356354  2.088494630778945 2.838099868570146 0.7939117251041017  2.095955383625021 2.820162101872163 0.719507816543224  1.976665887136422 2.742878418031831 0.7289333607915079  2.103441356502187 2.802237931292414 0.645075726115541  1.98542861779578 2.720535438997742 0.6573152808281676  2.110953053519659 2.78430287852431 0.570628280322389  1.994218609883174 2.69819201673198 0.5856795647068795  2.118481190863415 2.766331090302081 0.4961738402504334  2.003022165301376 2.675815681469836 0.5140398854337139  2.126009185574161 2.748307128374866 0.4217093191176032  2.011830125236649 2.653378704013409 0.442406411488836  2.020639779157163 2.630865880494651 0.3707713310798063  1.98699593003604 2.617640535477223 0.8571944475943436  1.995586548463049 2.588494408211781 0.7911351303720763  2.004244362263143 2.559366051282113 0.7250596732778495  2.012952364254797 2.530234923718383 0.6589712844477592  2.021670651642575 2.50107314087028 0.592874441712404  2.030372460250682 2.471850019459769 0.5267842947139179  2.03903991811308 2.442557603954822 0.4607045692196943  1.84469926846706 2.695714920688769 0.8067931298169893  1.819042298760024 2.838060306836959 0.7615399800580729  1.829725830752271 2.819531853528904 0.6879778790914136  1.855468322678071 2.670263646384384 0.7379579093511437  1.840387258333107 2.801085990720838 0.6143685896269317  1.866265953402304 2.644880624776716 0.6690776645812306  1.851049727449759 2.782664253358939 0.5407330111067282  1.877093478288635 2.619511581954785 0.600173857570245  1.861713703152364 2.764225190942577 0.4670908977014412  1.887924733590141 2.594118387060712 0.5312633137401548  1.87239842418221 2.745719889813964 0.3934654489283201  1.898758319850341 2.568652691804703 0.4623732882983823  1.883149813874271 2.727098135876559 0.3198752603698288  1.90960143920452 2.543080396821133 0.3935093668372004  1.926269943126204 2.916288040985352 0.7545222938872755  1.936519806762858 2.903540257924479 0.6780541770331792  1.946742507127002 2.890850154352706 0.6015447680544559  2.380656458126288 1.936671835390152 1.219151768206795  2.377695660958337 1.914108721425019 1.161319243119937  2.374744682001644 1.891570797156041 1.103465417280866  2.371774983662018 1.869048589415275 1.045594710164282  2.368770404173579 1.846527822035787 0.9877056416694813  2.365745281212057 1.82395973764327 0.9297922596563676  2.362717081385468 1.80131190828793 0.8718398481372437  2.579954058210343 2.495247799331167 0.9506223061471877  2.691305121978972 2.40410662897738 0.995302729187762  2.565821429945239 2.371259224431052 1.012719342024269  2.564950379047122 2.341036768817723 0.9531356467062324  2.691563406052239 2.375368020914647 0.9343510596646979  2.581271038981112 2.465099295243162 0.8878756299121635  2.564113000791345 2.310807616460281 0.8935634137257715  1.706926108874872 2.781396751961703 0.7548758011073636  1.717961605777553 2.760402928562605 0.6825782240186047  1.728981987053901 2.739513129476204 0.6102196100731332  1.739994075676078 2.718669202092048 0.537831582679041  1.750997915597202 2.697818215297106 0.4654408319070819  1.762024673983304 2.67689365004059 0.3930802840853287  1.773136079338547 2.655825926682693 0.3207769394420252  1.639874107526476 1.36681177448786 1.268398733504984  1.584668667700083 1.256795656679529 1.369074177336384  1.713310556867832 1.264098431675236 1.328293848853412  1.593142719739779 1.301645929490841 1.415668105951223  1.644475468624703 1.407272805945968 1.318743207522587  1.70230648524157 1.222983805241038 1.277853727116712  1.635190632096216 1.32639305531403 1.217971040804407  1.576181930380668 1.212053742195501 1.322414026825869  1.691382262421497 1.18217506060718 1.227284003844348  1.630358597207758 1.286191560288068 1.167404195580947  1.567627802005152 1.167626558063576 1.275589692664338  2.256563764297882 1.969439712327065 1.211400566057641  2.25491500296849 1.945339055743168 1.153960477216332  2.253293699792547 1.921280852783105 1.09649318753744  2.251670699048877 1.897242636470052 1.038996405177222  2.250040644150641 1.873168039504105 0.9814756052724612  2.24838202734241 1.849027863588309 0.923935761075623  2.246700765203938 1.824794746258084 0.8663832121500123  2.609608759672883 1.65624649681362 1.03734652319407  2.503343924127986 1.573147280625865 1.068820955848178  2.605380090501109 1.502625029385522 1.081665911346445  2.508465282632015 1.593921833222377 1.128717416437457  2.605487716833109 1.636446541731382 0.9780939407494098  2.498196773841161 1.552420245957247 1.008870274766937  2.600800931043038 1.481529238512427 1.021216745397473  2.601326939903608 1.616689602297162 0.918768547074549  2.49305687754 1.531760303404592 0.9488271911477573  2.596193656331598 1.460527233951107 0.9606622189152496  2.14204038315224 1.417556101621828 1.456004956612824  2.129528296951442 1.385474740554079 1.398466761167268  2.116901658418071 1.353242972112036 1.340994148442045  2.104234761321726 1.320961176427026 1.2835424503116  2.091578475754183 1.288715688890131 1.22606871703664  2.078984735664244 1.256583380332997 1.168527978042111  2.066516769537905 1.224654610404891 1.110855783206773  2.46832412064807 2.459742453424447 0.9672566184980813  2.468493845938246 2.42784119189821 0.9060679518670735  2.468704081864184 2.395926042253882 0.8448967723983579  2.239200408394374 2.660925135850795 0.8634618287424199  2.343264531806944 2.676120677095969 0.8680664680019833  2.303173224100333 2.568510387055101 0.9062415569673659  2.306744322363721 2.538391501092964 0.8413615609988512  2.348190937863142 2.651482922036511 0.7987039145600683  2.244863823598518 2.634550449940086 0.7949775464719634  2.310371142806221 2.508250898536956 0.7764944135874101  2.353191777914367 2.62682283232656 0.7293464620839167  2.2505936387305 2.608160840046855 0.7264914939816127  2.314031284983479 2.478098415519543 0.711629498217121  2.358230345302193 2.602145901215597 0.6599846457338342  2.256362457553208 2.581754810660377 0.6580018697171914  2.317700287607652 2.447916292615588 0.6467697720350585  2.363278156632779 2.577439173928691 0.590619072735984  2.262140132640842 2.555320252006673 0.5895093647990877  2.321353820292798 2.417692218071513 0.581924777131401  2.368307676386851 2.552691163190224 0.521251071870021  2.267901980293447 2.528842613625044 0.5210198806723481  2.32
[...]
<PointData  Vectors="f_16"> 
<DataArray  type="Float64"  Name="f_16"  NumberOfComponents="3" format="ascii">8.6114046985690612e-02 -1.5193681265058108e-02 1.9174382475184825e-04  8.5427018569573215e-02 -1.5082363666165326e-02 1.3150151495189738e-05  8.4678632260919054e-02 -1.5999441300013857e-02 6.5638702855540476e-05  8.4303978659915124e-02 -1.5971093776826303e-02 -1.8130340076612152e-04  8.5066701720732593e-02 -1.5044175274813788e-02 -2.3450225243465961e-04  8.5648136847535472e-02 -1.5129312586895134e-02 -3.3475261734815354e-05  8.3966073209649286e-02 -1.5940652770333116e-02 -3.8806016350806133e-04  8.4747721799556947e-02 -1.5014420843917258e-02 -4.4636037969518597e-04  8.5240664265455943e-02 -1.5067236260138384e-02 -2.3159609217585021e-04  8.3650664301915520e-02 -1.5908582328439516e-02 -5.6380727475153841e-04  8.4452979964446742e-02 -1.4991114598407197e-02 -6.3280683024926579e-04  8.4860753313359738e-02 -1.5007980519998845e-02 -4.0834840769295985e-04  8.3343237753551291e-02 -1.5873348902671551e-02 -7.1116871689478548e-04  8.4166132713397609e-02 -1.4968966048406246e-02 -7.9809534936490004e-04  8.4484682032035741e-02 -1.4948188993417304e-02 -5.6376249866443113e-04  8.3032226444710644e-02 -1.5831355782399036e-02 -8.2792855553299397e-04  8.3872337902254512e-02 -1.4940508151331959e-02 -9.4073537846000178e-04  8.4092255011613881e-02 -1.4882365660507249e-02 -6.9375705633303809e-04  8.2711330347637085e-02 -1.5779077477169130e-02 -9.0872950580075159e-04  8.3559778916609706e-02 -1.4895937550366816e-02 -1.0508286245497968e-03  8.3668615175555766e-02 -1.4802324447574450e-02 -7.8752187447321802e-04  8.7729713382017419e-02 -7.4561052962338371e-03 -1.4787634729813610e-03  8.7158274972815974e-02 -8.2391873581281402e-03 -1.1528032664776049e-03  8.8059493504024006e-02 -7.8370268887494095e-03 -9.0525125651893341e-04  8.7876732194117471e-02 -7.9158768768585117e-03 -1.0869585627454310e-03  8.6933783084664110e-02 -8.3540566159967401e-03 -1.3403716075495098e-03  8.7549500511486272e-02 -7.5744511984704478e-03 -1.6920887326915646e-03  8.7730169841717193e-02 -8.0406817991366258e-03 -1.3063392730912795e-03  8.6770245613832897e-02 -8.5013465793915919e-03 -1.5606479394594038e-03  8.7425244844663047e-02 -7.7357808258479059e-03 -1.9373550564390659e-03  8.7609757201099578e-02 -8.2041830775369962e-03 -1.5547151621025806e-03  8.6635740990321009e-02 -8.6802463973583866e-03 -1.8099835965249276e-03  8.7309595298928858e-02 -7.9119870036582010e-03 -2.2132883743647097e-03  8.7492675612432472e-02 -8.3897386061955077e-03 -1.8303474535165958e-03  8.6499421981350272e-02 -8.8772973491592199e-03 -2.0877507403129956e-03  8.7193700139750904e-02 -8.1054910187648120e-03 -2.5148457465760023e-03  8.6352576950696369e-02 -9.1050939104690438e-03 -2.3943057468946219e-03  8.7077213021887964e-02 -8.3266639176757876e-03 -2.8403611953518298e-03  8.7376282526841445e-02 -8.6065915929017384e-03 -2.1349194779260480e-03  8.6169449221446065e-02 -9.3802839642805041e-03 -2.7285914205345944e-03  8.6959565477959119e-02 -8.5878316811055962e-03 -3.1932400191490460e-03  8.7262807024463859e-02 -8.8938352988136224e-03 -2.4945008407269839e-03  8.5723134014680291e-02 -1.1678363995448813e-02 -4.0856241343868816e-05  8.5125290311759055e-02 -1.1512385533586638e-02 -3.6460434892263583e-04  8.4632852728025704e-02 -1.2596567940708096e-02 -2.5377586047459005e-04  8.4368483765175153e-02 -1.2592115082372098e-02 -4.4229612655363905e-04  8.4845113522181367e-02 -1.1546599308712380e-02 -5.3076534295623664e-04  8.5465760952047873e-02 -1.1673017626100303e-02 -2.2561188703841618e-04  8.5235298450702449e-02 -1.1697595357558288e-02 -4.2444057074700353e-04  8.4594296503986532e-02 -1.1605750992754496e-02 -7.1568306487492385e-04  8.4127383258874561e-02 -1.2608397639493840e-02 -6.2872804151221039e-04  8.5026236864932603e-02 -1.1747714199216002e-02 -6.3504800770389279e-04  8.4365811374961894e-02 -1.1690156900207084e-02 -9.1526928499039968e-04  8.3906645910385852e-02 -1.2648962950498013e-02 -8.2227976989696636e-04  8.4836940074785261e-02 -1.1822398228270151e-02 -8.5667124413586586e-04  8.4157292569272971e-02 -1.1802735161218386e-02 -1.1278824123694786e-03  8.3705070029759840e-02 -1.2715682094281981e-02 -1.0256574263868164e-03  8.4655694333319167e-02 -1.1910656631741777e-02 -1.0957638487822214e-03  8.3944225426161340e-02 -1.1929929430598330e-02 -1.3651235551540412e-03  8.3507129266367733e-02 -1.2792200771851019e-02 -1.2444518159784683e-03  8.4450221805332612e-02 -1.1989796501447136e-02 -1.3787925538925867e-03  8.3695433759971807e-02 -1.2057874859562041e-02 -1.6416573694852355e-03  8.3271493309571079e-02 -1.2841357314401870e-02 -1.4915369224507316e-03  8.8865552250950053e-02 -6.4020225826348868e-03 -1.7457765616878634e-03  8.8035716308786413e-02 -6.7244139020235863e-03 -1.9773481592527706e-03  8.7910163194716201e-02 -6.8406892187792036e-03 -2.2318771197107033e-03  8.8769398988116935e-02 -6.5069924040695214e-03 -1.9822589118546658e-03  8.7827313649699978e-02 -6.9857473529718857e-03 -2.5116000810249017e-03  8.8705777673669162e-02 -6.6464578719593707e-03 -2.2469075949421318e-03  8.7744637672311221e-02 -7.1320779532012364e-03 -2.8155001267696953e-03  8.8639695372108473e-02 -6.7925993034086219e-03 -2.5389598405561767e-03  8.7661764278105153e-02 -7.2906876441754063e-03 -3.1385352825183785e-03  8.8576521144067930e-02 -6.9536189808986669e-03 -2.8528145535460887e-03  8.7576321794787387e-02 -7.4701441129887023e-03 -3.4798357133819465e-03  8.8522488545530659e-02 -7.1370215592322208e-03 -3.1868122344135283e-03  8.8482571227904913e-02 -7.3531408262467075e-03 -3.5412114987154143e-03  8.8662372809694426e-02 -7.0448270360288900e-03 -1.2657274497908731e-03  8.8526709316344709e-02 -7.1361352316765547e-03 -1.4725925223101626e-03  8.8431668432049401e-02 -7.2802159549019098e-03 -1.7113851018115487e-03  8.8341823404291156e-02 -7.4428538329966614e-03 -1.9825952075520781e-03  8.8254305619887355e-02 -7.6264011138425201e-03 -2.2805456450185964e-03  8.8173308205523826e-02 -7.8395731209674070e-03 -2.6047870106677153e-03  8.8100838922833213e-02 -8.1016814034420050e-03 -2.9469173461611144e-03  8.9726443075905493e-02 -6.0828395708347966e-03 -1.6106145340948651e-03  9.0002844600511028e-02 -5.4501924749093154e-03 -2.0110788946006521e-03  8.9982349007753593e-02 -5.5446248938465338e-03 -2.2647879713622353e-03  8.9663914215439067e-02 -6.1732914751481006e-03 -1.8411270880368004e-03  8.9960838939370749e-02 -5.6626401560224311e-03 -2.5443832782200563e-03  8.9621324757934134e-02 -6.3085325381530962e-03 -2.0990781200846882e-03  8.9929856846908240e-02 -5.7825811063227320e-03 -2.8431193877737106e-03  8.9568743279624635e-02 -6.4517929701444808e-03 -2.3824279579856946e-03  8.9902363452684764e-02 -5.9103628579827558e-03 -3.1550489779919111e-03  8.9519815222074112e-02 -6.6087874622346972e-03 -2.6854069185052129e-03  8.9892688241770963e-02 -6.0501328452625576e-03 -3.4778047397870668e-03  8.9488243162050063e-02 -6.7845190978256115e-03 -3.0073525861700331e-03  8.9921673738540986e-02 -6.2048601230912442e-03 -3.8168038380929246e-03  8.9487230409051349e-02 -6.9829703549115591e-03 -3.3532113866943012e-03  8.9270363584207341e-02 -5.6764226533198318e-03 -2.1774404982130989e-03  8.9234348972240099e-02 -5.7705903570425517e-03 -2.4493707919398802e-03  8.9201228305352154e-02 -5.8784025735405827e-03 -2.7427784506839897e-03  8.5403083944914207e-02 -1.2560984651498932e-02 -1.7107188956447515e-05  8.5152706864823027e-02 -1.2519675672064742e-02 -2.1389632000763867e-04  8.4928711632759668e-02 -1.2509085797440821e-02 -4.1583414992360398e-04  8.4727037217108073e-02 -1.2526008312096808e-02 -6.2357425022463474e-04  8.4547746854168715e-02 -1.2566752408622737e-02 -8.3783256094227510e-04  8.4378790442346724e-02 -1.2617799298728718e-02 -1.0619969078116045e-03  8.4180448994658749e-02 -1.2636879463617174e-02 -1.3144570478329960e-03  8.4159768187056574e-02 -1.0675731591574131e-02 -1.5629442655451140e-03  8.3241531015704862e-02 -1.1721731796696092e-02 -1.5555453498379119e-03  8.4286442407686984e-02 -1.1171302111003662e-02 -1.1065293396014325e-03  8.3963457446960765e-02 -1.1282236006249084e-02 -1.2647877850175474e-03  8.2910146093981479e-02 -1.1865246812297683e-02 -1.7151836988692412e-03  8.3830001508126695e-02 -1.0834675279161201e-02 -1.7396279187878853e-03  8.3677727088233469e-02 -1.1413938018638520e-02 -1.4397551071522751e-03  9.0820333605483319e-02 -5.1345981704711647e-03 -1.9898419122565047e-03  9.0830847848699395e-02 -5.2369056192930995e-03 -2.2535808449048165e-03  9.0821085606272667e-02 -5.3507766620119745e-03 -2.5318450670145441e-03  9.0801478962717813e-02 -5.4681193607831946e-03 -2.8267211351225233e-03  9.0789298140569213e-02 -5.5918956552122156e-03 -3.1339248295768228e-03  9.0802572958088593e-02 -5.7275889049990657e-03 -3.4497936085069302e-03  9.0841298195706521e-02 -5.8504562336931729e-03 -3.7609368285120280e-03  8.9794902386297656e-02 -1.0177683095297485e-02 -3.5658208675665333e-04  8.9812947308432270e-02 -1.0186670019051594e-02 -4.2313961519804958e-05  8.8613133807878677e-02 -1.1324876245330759e-02 -1.7715374722643696e-04  9.0345333281558610e-02 -1.0116411736313226e-02 1.6662971404532445e-04  9.0208881875078084e-02 -1.0083389775037884e-02 -1.2888102081242236e-04  8.8102660992001758e-02 -1.1358319233333858e-02 -3.8223403064101773e-04  8.9372894210736145e-02 -1.0283023350566176e-02 -5.8892090876251104e-04  8.9254223552116693e-02 -1.0271437518903640e-02 -2.5383878081627491e-04  8.7535776369401658e-02 -1.1395361605956670e-02 -5.8306581804765914e-04  8.8934523654948916e-02 -1.0404414886519090e-02 -8.3160654372705159e-04  8.8646131303240713e-02 -1.0380129362494111e-02 -4.7345667520411839e-04  8.6483605731236618e-02 -1.1642907200316922e-02 1.7147575460978984e-04  8.6250565085484010e-02 -1.1607560674210602e-02 -3.8921845040591073e-05  8.6041642301946331e-02 -1.1603947811253530e-02 -2.5639890718550160e-04  8.5853581056457878e-02 -1.1627153378207451e-02 -4.8119139647244467e-04  8.5687914149010586e-02 -1.1672268268872427e-02 -7.1467836732159486e-04  8.5538501754304178e-02 -1.1731718642728274e-02 -9.6331613739949996e-04  8.5367381326555053e-02 -1.1771378157923906e-02 -1.2506852741101299e-03  8.2038053081170292e-02 -1.5061935746975490e-02 -1.1470389282361724e-03  8.2752424807564673e-02 -1.4979530151573181e-02 -1.0551229982157090e-03  8.1728572203075070e-02 -1.5908995368378233e-02 -1.1025095874822872e-03  8.2913109548941044e-02 -1.4966052223836224e-02 -8.8173570549228539e-04  8.1890556293433350e-02 -1.5090956369461473e-02 -1.3127103117178299e-03  8.2602861996665153e-02 -1.4998591989623562e-02 -1.2168082416003797e-03  8.1604463591318954e-02 -1.5937927674442669e-02 -1.2479072303339712e-03  8.1732410554544568e-02 -1.5094199117719720e-02 -1.4760318274626399e-03  8.2434433053640052e-02 -1.4989569070507891e-02 -1.3718211267021720e-03  8.1463949104539329e-02 -1.5934374361576884e-02 -1.3762356268031540e-03  8.6739122003339178e-02 -1.4318485194357106e-02 1.5679405281653514e-04  8.6317008656251776e-02 -1.4260434190711912e-02 -7.1284303037970779e-05  8.5949634497727134e-02 -1.4214638896621824e-02 -2.7616063262432083e-04  8.5609337101789806e-02 -1.4178161117458680e-02 -4.6424020108348058e-04  8.5273455805643439e-02 -1.4144623185510505e-02 -6.3817293695768559e-04  8.4921084307353289e-02 -1.4105468390589680e-02 -7.9501326534948209e-04  8.4530694127434622e-02 -1.4048887629160636e-02 -9.2432625835970391e-04  8.5076069158381382e-02 -1.0190451998961807e-02 -1.1674159976535834e-03  8.4767673918885802e-02 -1.0325702627662182e-02 -1.3309063297578399e-03  8.4505152357775226e-02 -1.0479707619893771e-02 -1.5190227086555571e-03  8.6837945807043695e-02 -8.1280784620023361e-03 -1.5169899045907754e-03  8.6067290811454839e-02 -8.6196904219836747e-03 -1.7098990465070640e-03  8.6345483491851005e-02 -8.8217643321491842e-03 -1.2643418495838095e-03  8.6081540221676842e-02 -8.9570873900866703e-03 -1.4553300978830661e-03  8.5802290171544490e-02 -8.7720522780478736e-03 -1.9302879853920559e-03  8.6605989899185276e-02 -8.2644879363361450e-03 -1.7352086082167290e-03  8.5871735683644798e-02 -9.1249117679348783e-03 -1.6738568246496951e-03  8.5597426254991241e-02 -8.9655871905348107e-03 -2.1753598373021451e-03  8.6433859714194178e-02 -8.4428032253281299e-03 -1.9767035114859719e-03  8.5693956740712326e-02 -9.3268625325196638e-03 -1.9181794640264916e-03  8.5411171910685729e-02 -9.1739636683339752e-03 -2.4461724426293645e-03  8.6276000293286942e-02 -8.6396200787517575e-03 -2.2462932228222254e-03  8.5508134040753761e-02 -9.5429275243248783e-03 -2.1910322130303367e-03  8.5219727420444175e-02 -9.3914657446765928e-03 -2.7389076009701357e-03  8.6114961787909658e-02 -8.8514665203641742e-03 -2.5429566558454017e-03  8.5305557755038466e-02 -9.7857515438966036e-03 -2.4893121997268714e-03  8.5016840675791905e-02 -9.6285283854053612e-03 -3.0503504287919029e-03  8.5948008337617218e-02 -9.0898765049249666e-03 -2.8642209002762162e-03  8.5079824062235979e-02 -1.0063168344061435e-02 -2.8092909074826501e-03  8.4811750830019281e-02 -9.8954028749460785e-03 -3.3844502678459145e-03  8.5787729060126203e-02 -9.3595892537466849e-03 -3.2016685224760580e-03  8.6712946160223278e-02 -1.3165913330744969e-02 1.2056023911082814e-04  8.5840319735327103e-02 -1.3307317777950200e-02 4.3049798664527160e-05  8.5560684550054750e-02 -1.3969925139292931e-02 -1.4195743874847467e-05  8.5289779471824381e-02 -1.3908177085699736e-02 -2.5516002349035039e-04  8.5582352043226770e-02 -1.3233858186588421e-02 -1.8210598368771641e-04  8.6416500176011990e-02 -1.3090727538107250e-02 -1.1327311352992701e-04  8.5046139131821019e-02 -1.3871611934951443e-02 -4.7065316739854416e-04  8.5352003094496851e-02 -1.3193116290021893e-02 -3.9445971099252440e-04  8.6161735142297483e-02 -1.3049224100276247e-02 -3.3079913119524293e-04  8.4832452300743308e-02 -1.3857200441521569e-02 -6.6708739169168312e-04  8.5150433409883888e-02 -1.3182189664886672e-02 -6.0050958638889029e-04  8.5947158283162239e-02 -1.3037767595327557e-02 -5.3889223036238999e-04  8.4637233294024186e-02 -1.3858445983408503e-02 -8.5592781541069755e-04  8.4979556318112201e-02 -1.3194571450544765e-02 -8.0292996834065221e-04  8.5747129943968464e-02 -1.3040359144265223e-02 -7.4407885500094614e-04  8.4435517339224345e-02 -1.3853681865516750e-02 -1.0441935425133484e-03  8.4808786661782987e-02 -1.3203709337653026e-02 -1.0104887763240980e-03  8.5534900307186065e-02 -1.3037639515853372e-02 -9.5397851084671862e-04  8.4214947013634203e-02 -1.3819625529174481e-02 -1.2294504373963175e-03  8.4611477380790528e-02 -1.3182226101703753e-02 -1.2279489431236707e-03  8.5291453471682710e-02 -1.3013209819347877e-02 -1.1639975232927049e-03  8.6748355208871794e-02 -1.3710494710372258e-02 1.0380739225049633e-04  8.5579594460421807e-02 -1.4420509804096060e-02 -1.0775380516691608e-05  8.5279218018023045e-02 -1.4367060371370819e-02 -2.5745959054604059e-04  8.6402913075527554e-02 -1.3651300528564142e-02 -1.3455740579253469e-04  8.5006588932471136e-02 -1.4337754726782831e-02 -4.7551056392662220e-04  8.6100362642094669e-02 -1.3616177431808161e-02 -3.4710821989178062e-04  8.4757787655001124e-02 -1.4324842823606312e-02 -6.7044749409795397e-04  8.5823860033008958e-02 -1.3601842310759801e-02 -5.4433749892681565e-04  8.4520501010697358e-02 -1.4318857329247155e-02 -8.5193256646400907e-04  8.5553364620158071e-02 -1.3594411640740626e-02 -7.3723473225730982e-04  8.4279683705194522e-02 -1.4305047192737431e-02 -1.0222687887387629e-03  8.5272509619964770e-02 -1.3579197717694671e-02 -9.2408505825361217e-04  8.4023724988500401e-02 -1.4267613993498950e-02 -1.1802045293337962e-03  8.4964418484679505e-02 -1.3538931600565716e-02 -1.0981099122945484e-03  9.1208562298984358e-02 -9.1091214022890176e-03 -5.7926034199927166e-05  9.0758673867357545e-02 -9.2335488688206502e-03 -2.7975340723865999e-04  9.0298411730995801e-02 -9.3788913005908876e-03 -5.0557841774916156e-04  8.9817698001821794e-02 -9.5465176674674919e-03 -7.3375100253248110e-04  8.3176827843976939e-02 -1.2702332764635676e-02 -1.1161430368780976e-03  8.2839830549957333e-02 -1.3503324913392144e-02 -1.0222935587711392e-03  8.2630891885045868e-02 -1.3565146274072471e-02 -1.2100698486092909e-03  8.2947501282984615e-02 -1.2803997541269610e-02 -1.3098648921955505e-03  8.2425223665158684e-02 -1.3632812330341594e-02 -1.4087318731387242e-03  8.2711726051491574e-02 -1.2910577754149550e-02 -1.5250711014984470e-03  8.2192569711601979e-02 -1.3676579837806074e-02 -1.6225158827474695e-03  8.2447199364051330e-02 -1.3005358436532236e-02 -1.7685693689683377e-03  8.6957913445477208e-02 -7.7229573472801152e-03 -1.8260493464019342e-03  8.6749395623200831e-02 -7.8671808585595530e-03 -2.0627596704267288e-03  8.6601764267170658e-02 -8.0514882496761728e-03 -2.3221055156443559e-03  8.6460985240090132e-02 -8.2379548608685002e-03 -2.6078128562390885e-03  8.6317575754716713e-02 -8.4374989439993751e-03 -2.9167054050924248e-03  8.6166024397807614e-02 -8.6603838563112812e-03 -3.2471794124202063e-03  8.5997448306487811e-02 -8.9191128785577230e-03 -3.5972186629586963e-03  8.6941367133967828e-02 -8.8156749498899817e-03 -8.1286559835219187e-04  8.6703400951731804e-02 -8.9145978703880357e-03 -9.8359319546544835e-04  8.6502006580988347e-02 -9.0425859871288393e-03 -1.1892011429841195e-03  8.6336743037944044e-02 -9.2133015753406121e-03 -1.4213064771286094e-03  8.6175426257161819e-02 -9.4103030981407959e-03 -1.6824791017563138e-03  8.6003087565092950e-02 -9.6370808551433113e-03 -1.9747665486840342e-03  8.5803712145317124e-02 -9.9050473038707499e-03 -2.2954906463282581e-03  8.5265547104277695e-02 -9.5824696733516398e-03 -1.5184081195579757e-03  8.5178508796827243e-02 -9.1611429501871969e-03 -2.0264105861784744e-03  8.4323044226448540e-02 -1.0083975103762802e-02 -1.9499987784115822e-03  8.4004846456725485e-02 -1.0266515504672582e-02 -2.1581446675817237e-03  8.4889832134078011e-02 -9.3388707851036618e-03 -2.2517979747510132e-03  8.4963545997806145e-02 -9.7411601666737395e-03 -1.7069981964414843e-03  8.3744181627765008e-02 -1.0475861152216128e-02 -2.3815592567735275e-03  8.4674840746049987e-02 -9.5453211982351148e-03 -2.4981085362279897e-03  8.4720762003930708e-02 -9.9253126075249491e-03 -1.9217292175173963e-03  9.1656855091071215e-02 -8.7279198430618102e-03 -1.4495629285335529e-04  9.1656797056979308e-02 -8.9968444029994484e-03 1.5967789238263569e-04  9.0619412823488593e-02 -9.9967528523957419e-03 9.7591614805327722e-05  9.1039008664630397e-02 -9.9205229114007615e-03 3.2434785362438635e-04  9.2024397856422913e-02 -8.5899092490188261e-03 9.9699031986303955e-05  9.1312646086643773e-02 -8.8716165718556658e-03 -3.7896232427658935e-04  9.0970506983304222e-02 -9.0171400599887604e-03 -6.1334194799048645e-04  9.0637284090748629e-02 -9.1736089972252865e-03 -8.4982501376348451e-04  9.0327274677534139e-02 -9.3596675334709223e-03 -1.1030452490042835e-03  8.3700087500326051e-02 -1.3305060231799613e-02 -7.9480586291320594e-04  8.2584119930582012e-02 -1.4231893573222201e-02 -9.7680676342617079e-04  8.3907372710011280e-02 -1.3292229407232016e-02 -6.0276249779797337e-04  8.2400049237593170e-02 -1.4270909062067193e-02 -1.1618175959484370e-03  8.3511277947228721e-02 -1.3339442477750646e-02 -9.9148030025379501e-04  8.2229369628878057e-02 -1.4313806168985813e-02 -1.3458830817953944e-03  8.3337985954535732e-02 -1.3388827872935202e-02 -1.1954695423636737e-03  8.2038298772844312e-02 -1.4330306442835014e-02 -1.5354376047439905e-03  8.3128466668699288e-02 -1.3401448251444866e-02 -1.4154778567498844e-03  8.3202341830713011e-02 -1.5706710047760909e-02 -2.0204133219494169e-04  8.3478531978074338e-02 -1.4987591730618359e-02 -2.3230517107369192e-04  8.2311325152894313e-02 -1.5805643413528123e-02 -2.8233987628511478e-04  8.2995775161715510e-02 -1.5694490504895062e-02 -4.5833263645363322e-04  8.3271338456644098e-02 -1.4960033257740724e-02 -4.7334860140191455e-04  8.2147017100683187e-02 -1.5813397032313457e-02 -5.3526547892572898e-04  8.2811465963846462e-02 -1.5698683324477831e-02 -6.7818187059541155e-04  8.3084854936988917e-02 -1.4956221806032878e-02 -6.8862382334925680e-04  8.1997807247599530e-02 -1.5839232