<?xml version="1.0"?>
<VTKFile type="UnstructuredGrid"  version="0.1"  >
<UnstructuredGrid>
<Piece  NumberOfPoints="997" NumberOfCells="4279">
<Points>
<DataArray  type="Float64"  NumberOfComponents="3"  format="ascii">8.895410063286967 1.533073795375506 2.265189620919304  8.829261961723663 1.519893364385529 2.351681881466638  8.785000649550204 1.508458591726102 2.218545167109312  8.800138778550526 1.452216962157738 2.214968025306426  8.84276415532578 1.464248753174139 2.354287853381695  8.909984542888278 1.477565453090246 2.262031543868289  8.8155917200756 1.396087273595136 2.211255137808454  8.856529518938723 1.408691026331007 2.356782764915007  8.924843985216095 1.422206698563671 2.258761701886309  8.831149601338334 1.340031352806665 2.207501496078323  8.870393481855743 1.353186757890479 2.359228118293865  8.939799469174652 1.366947694228204 2.255442227247299  8.846670433621679 1.284015247224772 2.203756867934394  8.884231833523902 1.297712513586374 2.361671956906095  8.954718633314984 1.311758280090648 2.252127783833031  8.862013279833953 1.227993731037308 2.2000715179152  8.897914283709735 1.24223943976896 2.364160189416463  8.96944191281813 1.256618725266207 2.248876616353454  8.876981943354807 1.171868364188725 2.196514999487009  8.911268026980755 1.186724861634997 2.366749582668999  8.983718650333959 1.201448954758979 2.24573256702803  9.110747725794669 2.138052330453744 1.473437160513647  9.005307589058482 2.110191301780934 1.473325871788899  9.066032942585505 2.215280195139028 1.430135301919425  9.07162355752358 2.192164402533042 1.38243733966309  9.012473665710187 2.087283616673989 1.42497174124746  9.11644742530828 2.1148059591856 1.425478514831641  9.077199916701501 2.169076243492801 1.334974158191225  9.019624951031915 2.064451882544189 1.376831785549784  9.122096300865362 2.091633986253709 1.377753791827352  9.082745952382398 2.146009614980637 1.28777010782208  9.026757616248629 2.041685358099113 1.328922888563356  9.127715905444967 2.068524249409973 1.330259815986157  9.088293008666165 2.123021737721033 1.240792134201174  9.033884271247686 2.018998222289875 1.281220330369993  9.133333840756993 2.045492600180047 1.28297621689253  9.093813878394423 2.100139873071904 1.194053707698265  9.040961320080672 1.996371261468282 1.23373799315006  9.138928503004342 2.022534365019493 1.235919316023394  9.099270310590313 2.077398514760172 1.147579820769074  9.04793963166362 1.973786254287034 1.18654735220855  9.144471360636294 1.999647677167624 1.189154069453633  9.032859261027092 1.652487851683533 1.886084267880581  9.017255972096189 1.617692023750645 1.986971295186179  8.908329320417753 1.620291473448971 1.891734035138775  8.921148339019815 1.567725453908666 1.869438842538521  9.028753353487362 1.564015512433149 1.970094573748742  9.045215752327346 1.60120136991791 1.862382756492755  9.057675126896557 1.550139964589735 1.838613264785015  9.040331634885572 1.510552373372666 1.95310964182216  8.93408116757205 1.51541683638344 1.847062371321303  9.070155636989861 1.499268144743736 1.814845585270473  9.051945848609538 1.457248358021274 1.936075301526091  8.947049461692361 1.463279577545841 1.82467299682304  9.082588305273614 1.448533837584026 1.791138014135962  9.063530966643663 1.404053000410836 1.919050725818988  8.959964377218522 1.411266560454347 1.802330296507852  9.094876228116304 1.397897838185491 1.767564138109118  9.075010867911097 1.35093461086047 1.902098750499668  8.97271801693951 1.359353536991356 1.780100356748482  9.086312599977925 1.297901997065273 1.885339600912399  9.106869646813966 1.347328117143821 1.744178814351769  8.985238674543698 1.307508624112989 1.758050937192706  8.825291630610813 1.472463323599591 2.106290869508111  8.807982098773286 1.491561696512089 2.005429055362284  8.711585913310445 1.438934281303991 2.086198240119265  8.791144904307437 1.545604317955716 2.021772746149184  8.808127409472743 1.527651683989079 2.115788215630238  8.825202590351054 1.437721924929501 1.988988754555877  8.842887932774554 1.417460238915369 2.096675681493565  8.726903355846202 1.382095297451204 2.075733694993439  8.842553920453717 1.3840059835708 1.972515045157183  8.860618015586786 1.362561259663163 2.087023558297969  8.742281535472896 1.325340422873819 2.065251022393002  8.859872052119004 1.330359988674701 1.956061586771367  8.878311127574189 1.307722726974787 2.077382979059333  8.757594619072249 1.268626324949081 2.054787955691678  8.876977027386342 1.276734235151221 1.939677662129262  8.895782313697268 1.252894956259735 2.067796288894749  8.772717118903651 1.211895784906056 2.044375085351681  8.912704733459 1.197935442170935 2.05830247164195  8.893543862395031 1.223004590373194 1.923406525816131  9.553213561971107 1.692242699470965 2.639569533554867  9.424701910508393 1.662423639804791 2.589161249319794  9.528409903984603 1.670580408474905 2.539473647540267  9.536711966467877 1.617831103271958 2.547952938444555  9.432785009215388 1.610125665712554 2.600180355191136  9.561615566077061 1.641220067113647 2.65447893951913  9.570035501171018 1.590233652626806 2.66929588324331  9.440870852430967 1.557862730038447 2.61106941567902  9.545017570771412 1.565134472277366 2.55632516033529  9.578444181143873 1.53930262850067 2.684055724145317  9.448951915157117 1.505644631339751 2.621889858043449  9.553312080189311 1.512481249081644 2.564633768560185  9.457019080937155 1.453474743461292 2.632687171475329  9.586837609042124 1.488437148764276 2.698785212298447  9.561594050334447 1.459882916295616 2.572916916339095  9.595209206964054 1.437646002129307 2.713515477497376  9.465056302883493 1.401386510885865 2.643502585752632  9.569866883757101 1.407344929642711 2.581212290080458  9.60353357279309 1.386910975642145 2.728275697480514  9.473062653760827 1.349380402070583 2.654389309961248  9.578090951448065 1.354916243976923 2.589567313902493  8.951680934866255 2.225167131138125 1.411817685802035  8.958796762410024 2.202752101470122 1.363829378552199  8.965914722870311 2.180375463220109 1.316115795241056  8.973027615265368 2.158009839928115 1.26864066833887  8.980131324385855 2.135708007028473 1.221389223114659  8.987186342858104 2.113509466538448 1.174359375523593  8.994118903120452 2.091469128468093 1.127633197203505  8.952552180600316 1.674521558992057 1.810109828037727  8.965119359282856 1.625553485336471 1.78132999236262  8.977778795383697 1.576848257142393 1.752519332935649  8.990468153276487 1.528325512211932 1.723726735232266  9.003109629622639 1.479916817520843 1.695004460827157  9.015616716150358 1.431575397143186 1.666411165809669  9.027886802143085 1.383244364305581 1.63796911507823  8.715349401346078 1.431900520465533 2.347482997708925  8.70048526055605 1.474071785583662 1.954427388570169  8.717503145740274 1.419407825529247 1.936607704445598  8.734625136573895 1.364832040946842 1.918768979649217  8.751698221661595 1.310299532776721 1.9009525457966  8.768575316611347 1.255747461624566 1.883185721895296  8.785061925871029 1.20104744983427 1.86548063836023  9.409877606585853 1.693143319431934 2.705364267881262  9.41830148626337 1.643382968073219 2.723074582575824  9.443678852163966 1.494242886421793 2.775774962700814  9.452094264296669 1.444605793396784 2.793305881439113  9.460455404707185 1.395017150803877 2.810881404730827  8.662698331538394 1.417576709224019 2.231401499013713  8.850413022153806 1.677329841143954 1.764828742562877  8.86393988667254 1.628944364317155 1.734656388380148  8.877589831439293 1.580822697384188 1.70443031363279  8.891287483528442 1.53286523396768 1.674220485642651  8.904938346217424 1.484991518253794 1.644071717520668  8.918442781135946 1.437128319315104 1.614020603647439  8.931683389801078 1.389267086620534 1.58414478640801  8.806734662091706 1.464308487888947 2.469386920907647  8.821055506917544 1.409653171102029 2.477462389916659  9.044075811797457 2.318102740634598 1.379620272643235  9.048728389421047 2.293688929741289 1.332583986876654  9.053384585493911 2.269240467940013 1.285799889844887  9.058026835841668 2.244787848586812 1.239276177951238  9.062662904416495 2.22039211099725 1.192972687941205  9.067284356587948 2.196117007730667 1.14686718986229  9.071895925727874 2.172109846789079 1.100960481896526  9.455729162562173 1.646105963844305 2.464703142038327  9.464202602823393 1.592590364371161 2.471546069851397  9.472686183476823 1.539142316260526 2.478234770982697  9.481161283249062 1.485769000797393 2.484847534371221  9.489616197275218 1.432473919937024 2.49143624068977  9.498033816251059 1.379274836391083 2.498048883372434  9.506391484799247 1.326172948983275 2.504752066561282  8.781075028593344 1.618105703770391 1.833016581986809  8.752879612485351 1.682959803461145 1.700281860557841  8.766631400483035 1.637067907472023 1.664894461659077  8.796550113533137 1.567539026072166 1.806477044136587  8.780477673391578 1.591458368555262 1.629480699635779  8.812240991359754 1.517236678734093 1.779859679021179  8.794344124129138 1.546023220420082 1.594143985518741  8.82801808533835 1.467092167352405 1.753241025798421  8.808133697630836 1.500683798653075 1.558908501041281  8.843761369244818 1.417031569649665 1.726667554357407  8.821729335452023 1.455407120676134 1.523812670479825  8.859341448118078 1.366996299175797 1.700178489004288  8.83510102955648 1.410168109029869 1.488897618080622  8.874501830866734 1.316910954720446 1.673795611090194  8.925473806357003 2.338014652530459 1.354542809644796  8.932414569627536 2.31413709004106 1.307165702440043  8.939390020398614 2.290223779844884 1.260069393055505  8.946390098485097 2.266299888712706 1.213218262937022  8.953379779143809 2.242422771804358 1.166596939412921  8.960327980334503 2.218680489670096 1.120178705346944  8.967144982138981 2.195237834488886 1.073983249267594  8.698288937933471 1.575558967047648 1.73512157806629  8.65473328507302 1.660831013468795 1.609796754147653  8.670515971262729 1.61927704803634 1.570129432464359  9.343557764095182 1.63405080791576 2.502881283001611  9.352186891467195 1.580721595323721 2.51043215106125
[...]
<PointData  Vectors="f_16"> 
<DataArray  type="Float64"  Name="f_16"  NumberOfComponents="3" format="ascii">2.7301909489898187e-02 -1.2423458147097204e-02 1.0930246165530276e-02  2.8273440000022566e-02 -1.3406833727750318e-02 1.1081600180388654e-02  2.8521876937757731e-02 -1.2866148417700814e-02 1.0494209054474419e-02  2.8971591834752002e-02 -1.3032773283940525e-02 1.0079706598104169e-02  2.8647412555321439e-02 -1.3657747292677313e-02 1.0742671859256250e-02  2.7727282771311812e-02 -1.2586104427057852e-02 1.0491227908729847e-02  2.9438191906509915e-02 -1.3171696235607887e-02 9.7148285772108711e-03  2.9045655965219446e-02 -1.3872791609056166e-02 1.0419832738058438e-02  2.8161911943308020e-02 -1.2736240784984008e-02 1.0093205585459597e-02  2.9907697773718864e-02 -1.3300794222480932e-02 9.3701160815079804e-03  2.9452906119663041e-02 -1.4069158576165175e-02 1.0110485922958025e-02  2.8598891631310901e-02 -1.2883411743186303e-02 9.7112978943438670e-03  3.0376818274427800e-02 -1.3421887214101379e-02 9.0267711976981680e-03  2.9863887393840872e-02 -1.4250596137909737e-02 9.8051865688312673e-03  2.9042801336240098e-02 -1.3027021327390694e-02 9.3313121283721840e-03  3.0859510257753242e-02 -1.3529816547662306e-02 8.6708649574429551e-03  3.0284230347223419e-02 -1.4417962284860955e-02 9.4954919225163151e-03  2.9494408946442643e-02 -1.3164816321019434e-02 8.9401759006258723e-03  3.1363315156204094e-02 -1.3617550847150880e-02 8.2921508435050400e-03  3.0712528370177274e-02 -1.4571938593129979e-02 9.1760111103780153e-03  2.9961278678713104e-02 -1.3291899631777017e-02 8.5205801066697527e-03  2.0676605342654402e-02 -7.0357189550385234e-04 1.2341628268020302e-02  2.1392598177572157e-02 -1.8375105994797849e-03 1.1769492775033299e-02  2.0463216507042779e-02 -5.9299336112927621e-04 1.1888695232392636e-02  2.1039193672845929e-02 -5.0493659156810667e-04 1.1977764175561460e-02  2.1991696873121851e-02 -1.6520685889518485e-03 1.1817778938533079e-02  2.1148680980705246e-02 -5.3491533323747858e-04 1.2364053617838671e-02  2.1547266821158335e-02 -5.2495952525781779e-04 1.1981991279767464e-02  2.2549836208510393e-02 -1.5660877099960072e-03 1.1770086818964137e-02  2.1581790619959438e-02 -4.6603108549639284e-04 1.2291815252116100e-02  2.2063260429236869e-02 -5.9479846829567644e-04 1.1880358302785634e-02  2.3128762308798994e-02 -1.5299650445659274e-03 1.1614602407413273e-02  2.2030903366746402e-02 -4.5070873815991922e-04 1.2110603442954847e-02  2.2592764848779315e-02 -7.1532589459092960e-04 1.1665194199704647e-02  2.3730826303717849e-02 -1.5348790074638920e-03 1.1347118535982062e-02  2.2496673721550346e-02 -4.8180213845475670e-04 1.1814964633940458e-02  2.3142527857150999e-02 -8.8475480812755518e-04 1.1319884186431010e-02  2.4361971618357566e-02 -1.5679573489871506e-03 1.0954691950333339e-02  2.2981979053572934e-02 -5.4718345095169831e-04 1.1391135549938728e-02  2.3721069824039771e-02 -1.0874023011582447e-03 1.0832712005238523e-02  2.5021769742888469e-02 -1.6149805347823608e-03 1.0406652576594252e-02  2.3488350957055894e-02 -6.2632514635712450e-04 1.0818663919516478e-02  2.4527852438458401e-02 -7.5070518302220186e-03 1.0759538463978762e-02  2.5014705171626656e-02 -8.7855660879510855e-03 1.0782555685075593e-02  2.5911912980973246e-02 -8.8071676394246359e-03 1.0317546139258496e-02  2.6588178280337101e-02 -8.6618907961913301e-03 9.7765959026638819e-03  2.5574982451067728e-02 -8.7335688139079937e-03 1.0185802298442244e-02  2.5116938064698949e-02 -7.3435720376364604e-03 1.0172486562208915e-02  2.5674773133202985e-02 -7.2460080880948283e-03 9.6011312345286384e-03  2.6114262614995908e-02 -8.7271814827635311e-03 9.6255606252374382e-03  2.7234438213891765e-02 -8.5746017026556622e-03 9.2689791914004286e-03  2.6219012174663429e-02 -7.1989605719086436e-03 9.0172067835253972e-03  2.6643572174759534e-02 -8.7553325870650921e-03 9.0705465150733820e-03  2.7871512802799821e-02 -8.5270741466799416e-03 8.7632372651642327e-03  2.6761662305090285e-02 -7.1923239503929514e-03 8.4019101058860502e-03  2.7171569707379200e-02 -8.8109515255410057e-03 8.4963492405223055e-03  2.8514031240796170e-02 -8.5070574091361782e-03 8.2316331196189609e-03  2.7312587108625899e-02 -7.2183232995605660e-03 7.7435709412760510e-03  2.7698628129140881e-02 -8.8959358453612556e-03 7.8855452554568092e-03  2.9166330760678170e-02 -8.5118672607388361e-03 7.6481841000282606e-03  2.8215700129329956e-02 -9.0210133747362850e-03 7.2353784653761506e-03  2.7882971896815819e-02 -7.2673413961253566e-03 7.0419423989523961e-03  2.9824574839279111e-02 -8.5458390014469150e-03 7.0213123522666872e-03  2.8433334086626256e-02 -1.1971969343439675e-02 9.7953940824358921e-03  2.8387595458744651e-02 -1.1214945273945561e-02 9.4974909865843671e-03  2.9928804886923368e-02 -1.2812881843743859e-02 9.3128604664881268e-03  2.7790226025190091e-02 -1.1278007726356476e-02 9.9951795111503667e-03  2.7912483194961174e-02 -1.1929654243825839e-02 1.0262552164460316e-02  2.8959309457276993e-02 -1.1181584978009671e-02 9.0765265202813576e-03  2.8941593347152694e-02 -1.2019727956277157e-02 9.3900032393439501e-03  3.0480807936149767e-02 -1.2886105585631386e-02 8.9604523159973175e-03  2.9523844507204623e-02 -1.1164829944914006e-02 8.6738665510384325e-03  2.9445064231349124e-02 -1.2074392610638144e-02 9.0011646737478117e-03  3.1032352111299961e-02 -1.2953372329711086e-02 8.6289958111171426e-03  3.0095810835740235e-02 -1.1155122450781461e-02 8.2601862538729080e-03  2.9952853274216134e-02 -1.2130087383835622e-02 8.6058389468653667e-03  3.1586397896139151e-02 -1.3014647054215763e-02 8.2946295325759083e-03  3.0686783624316750e-02 -1.1141330163634415e-02 7.8117592579281595e-03  3.0477046013837977e-02 -1.2174220497877669e-02 8.1852086397753935e-03  3.2155121432239982e-02 -1.3061668987403035e-02 7.9424057869585622e-03  3.1031845594243501e-02 -1.2199172148739819e-02 7.7208494149786861e-03  3.1317478542471959e-02 -1.1108854810006407e-02 7.2953993635846556e-03  2.0830583582854719e-02 -1.2322244350141067e-02 1.1158900011046026e-02  2.2307372644210229e-02 -1.2431162168014993e-02 1.1607981946604114e-02  2.1167785250697232e-02 -1.1741844522100607e-02 1.0987637217651213e-02  2.1388842304576574e-02 -1.2134974725913289e-02 1.0715451132391031e-02  2.2556253440557152e-02 -1.2829293354951166e-02 1.1364050600501836e-02  2.1115881422726177e-02 -1.2718524095965444e-02 1.1039085267365700e-02  2.1453476372523778e-02 -1.3062026329932421e-02 1.0897158697763584e-02  2.2853880508286781e-02 -1.3178210353629788e-02 1.1135934353252327e-02  2.1653787611372502e-02 -1.2485804909110351e-02 1.0460241953216253e-02  2.1824161646914874e-02 -1.3370560520408088e-02 1.0735545841006749e-02  2.3185699895631268e-02 -1.3491412868485186e-02 1.0900791796825220e-02  2.1955321558926030e-02 -1.2800837959206309e-02 1.0200801400747389e-02  2.3539726336499013e-02 -1.3778671349167618e-02 1.0648442583013864e-02  2.2220946341653908e-02 -1.3649435356736057e-02 1.0553055813507501e-02  2.2284205190408655e-02 -1.3088891241160699e-02 9.9256997694302830e-03  2.2629271784667768e-02 -1.3901671055343023e-02 1.0353840178165668e-02  2.3904833736656386e-02 -1.4046300452885099e-02 1.0369687395023980e-02  2.2626452343331188e-02 -1.3353195287061538e-02 9.6320640771508630e-03  2.3030934040345199e-02 -1.4119579720524241e-02 1.0140957790491388e-02  2.4257563422736734e-02 -1.4297848075357200e-02 1.0070915277597013e-02  2.2967160140391477e-02 -1.3607903891929597e-02 9.3240485840311738e-03  2.0969152332088150e-02 -1.6789096195138754e-03 1.1013318658325893e-02  2.1697777187149540e-02 -1.5956415179193117e-03 1.1147315626601328e-02  2.2343705617275798e-02 -1.6308170662262501e-03 1.1205211267288269e-02  2.2995541426833733e-02 -1.7117265047888776e-03 1.1162172936122016e-02  2.3667504943660059e-02 -1.8382486048795332e-03 1.1010549697804692e-02  2.4369899638197336e-02 -2.0111200053400985e-03 1.0734285245971538e-02  2.5117048424420654e-02 -2.2258525277824058e-03 1.0298898437587150e-02  2.4989641219553545e-02 -7.3978378455000068e-03 1.0559709153476473e-02  2.5677678536304843e-02 -7.1511873888636251e-03 1.0038330322545114e-02  2.6330710907927254e-02 -6.9821799965352838e-03 9.5243949763195931e-03  2.6975219623915796e-02 -6.8691090273848964e-03 8.9962869248459455e-03  2.7629165387305293e-02 -6.7981605190315427e-03 8.4335845422264383e-03  2.8300111944546735e-02 -6.7644287133827420e-03 7.8195376590232037e-03  2.8995759455998346e-02 -6.7621394847042111e-03 7.1615557614301282e-03  3.0159560145255847e-02 -1.4343125286191305e-02 1.0418867558456333e-02  2.9699434389711368e-02 -1.1834382293981404e-02 8.9196710850612936e-03  3.0323634126422191e-02 -1.1802390237537885e-02 8.5568987339440395e-03  3.0944164228977999e-02 -1.1779505223074287e-02 8.2192132184951798e-03  3.1572257881616710e-02 -1.1758208153288558e-02 7.8762047779765715e-03  3.2224832181215815e-02 -1.1725369730961433e-02 7.5084793309936650e-03  3.2921164727849617e-02 -1.1667164920196944e-02 7.0912010363175342e-03  2.2404579790127398e-02 -1.3167825398085715e-02 1.2086916045233256e-02  2.2698671819047191e-02 -1.3565223647263980e-02 1.1995553768336891e-02  2.3807614523242138e-02 -1.4494650722563510e-02 1.1598610844624076e-02  2.4203124369800186e-02 -1.4738599696296067e-02 1.1425626675999435e-02  2.4592414841524836e-02 -1.4949891322043602e-02 1.1233258510942964e-02  3.0686190313138271e-02 -1.4040529765996507e-02 9.7612974577076621e-03  2.5872685908907012e-02 -8.0166253681474581e-03 1.0083317707889590e-02  2.6655974977995735e-02 -7.7379689832499324e-03 9.6423673580942598e-03  2.7398608252792570e-02 -7.5468813445615400e-03 9.2018400246675382e-03  2.8133432423390132e-02 -7.4127740862643008e-03 8.7493488856079469e-03  2.8886100273472978e-02 -7.3151364036866577e-03 8.2701761629055178e-03  2.9673851728987285e-02 -7.2407018093997673e-03 7.7531273891613180e-03  3.0487449964625643e-02 -7.2011744395578895e-03 7.1502780571901531e-03  2.9224641464402831e-02 -1.4478791805385388e-02 1.1173705266773777e-02  2.9551883009400419e-02 -1.4732531104603512e-02 1.0932748051356366e-02  2.0024389924506045e-02 -3.1059207278193846e-04 1.1172151870641243e-02  2.0694060315752896e-02 -3.2237930274288385e-04 1.1326958618190060e-02  2.1271445762212689e-02 -4.4657014949448377e-04 1.1408736907856222e-02  2.1840950629626668e-02 -6.2476634365500779e-04 1.1392538936903698e-02  2.2418395451963082e-02 -8.6128576761849323e-04 1.1272029501190961e-02  2.3008084690873336e-02 -1.1691297671777296e-03 1.1034809111919567e-02  2.3611431268284626e-02 -1.5731275670197431e-03 1.0649976134890729e-02  2.1941274410262307e-02 -1.1404877998911050e-02 1.1075943271504414e-02  2.2149769742666994e-02 -1.1785196982542290e-02 1.0710727071358591e-02  2.2397875140925772e-02 -1.2129458099508607e-02 1.0373229974028999e-02  2.2673477809631765e-02 -1.2449967131171301e-02 1.0043171595754465e-02  2.2972282347615457e-02 -1.2751007385414856e-02 9.7046980435290513e-03  2.3288267021697881e-02 -1.3037037945723121e-02 9.3450570443662888e-03  2.3612254299345357e-02 -1.3305567321435705e-02 8.9624935155955994e-03  2.7089573135872781e-02 -9.5735522204952357e-03 9.6963942281333287e-03  2.6866853089500504e-02 -8.5211593712596085e-03 9.3755050548788074e-03  2.7734514606700650e-02 -8.2173048345074683e-03 9.0303505805617561e-03  2.7848055817195336e-02 -9.3355120200717089e-03 9.2331874182095940e-03  2.8572631502031806e-02 -8.0023717851019725e-03 8.6863565446819221e-03  2.8563130573503570e-02 -9.1714720123327632e-03 8.8133278399039148e-03  2.9413341737622292e-02 -7.8496707539118145e-03 8.3254119919915683e-03  2.9267942333745280e-02 -9.0506739733368421e-03 8.4022997891128083e-03  3.0283982728010809e-02 -7.7350294681278551e-03 7.9303108618307590e-03  2.9983699998965215e-02 -8.9555047554007918e-03 7.9739526615545103e-03  3.1198339223020448e-02 -7.6439473339438777e-03 7.4859864055778066e-03  3.0726185458621044e-02 -8.8761061428467049e-03 7.5049623707159566e-03  3.2157414160071618e-02 -7.5660247481820235e-03 7.0030526081758301e-03  3.1512245749255166e-02 -8.8016724239712244e-03 6.9505554790967551e-03  2.0507374248918162e-02 -1.4818273292751295e-03 1.0066008992553523e-02  2.1332429649114183e-02 -1.5058660952330153e-03 1.0267606008411425e-02  2.2050343157299424e-02 -1.6409907559948543e-03 1.0399459571101145e-02  2.2755093054899901e-02 -1.8276268538534209e-03 1.0440176475288342e-02  2.3470044534102733e-02 -2.0688829409222917e-03 1.0382300285227290e-02  2.4209721544107089e-02 -2.3817443789861982e-03 1.0211942035608006e-02  2.5006161473132487e-02 -2.7943485680731539e-03 9.8973932625617128e-03  2.8893962824015580e-02 -9.8075846113455708e-03 8.5897812743735615e-03  2.8671528079037972e-02 -9.1018761873953059e-03 8.2821988464903927e-03  2.9565567229244225e-02 -8.8383887422758978e-03 8.0650168447242657e-03  2.3130275648197553e-02 -1.2065601999374509e-02 1.1591599107876936e-02  2.3372320718803841e-02 -1.2433461728125438e-02 1.1240098604529620e-02  2.3651248957977492e-02 -1.2765646463602747e-02 1.0921429278752823e-02  2.3955543723451055e-02 -1.3073009014673894e-02 1.0610771284053935e-02  2.4276980351526343e-02 -1.3363496466576089e-02 1.0289686772072291e-02  2.4610529123759488e-02 -1.3639473828294245e-02 9.9472506354955879e-03  2.4950294651260189e-02 -1.3907479102253805e-02 9.5794522882948988e-03  2.1543426613499103e-02 -7.2591576397593120e-03 1.0623226172669090e-02  2.1969841571150041e-02 -6.4900161944774345e-03 1.0908076296672444e-02  2.1118916524073782e-02 -6.2272091057477708e-03 1.0612173892238317e-02  2.1268783231889247e-02 -6.2927780838650266e-03 9.8916404236364594e-03  2.2233150721526207e-02 -6.5006800531577490e-03 1.0209182470898534e-02  2.1726849525704018e-02 -7.3725589939218090e-03 9.9272669603599727e-03  2.1416451987571600e-02 -6.4056535295772890e-03 9.1992601764378963e-03  2.2490310664912052e-02 -6.5662154349725565e-03 9.5323644267004855e-03  2.1901438038127271e-02 -7.5203058981910481e-03 9.2708015578143350e-03  2.1558690668781844e-02 -6.5574705176010889e-03 8.5191840812850021e-03  2.2742960382414228e-02 -6.6769166513528603e-03 8.8622754604998702e-03  2.2075020051649626e-02 -7.6987313875074917e-03 8.6309717001586232e-03  2.1703786542055507e-02 -6.7445552198120819e-03 7.8372035405941554e-03  2.2997871202603760e-02 -6.8260381912829855e-03 8.1845661964924151e-03  2.2253741766930402e-02 -7.9049064736621717e-03 7.9909436388270992e-03  2.1854992327088187e-02 -6.9659178159090229e-03 7.1430161945877715e-03  2.3259485773958619e-02 -7.0099345147935877e-03 7.4903230157878260e-03  2.2440637131925061e-02 -8.1371577837853187e-03 7.3388022749638140e-03  2.2016985844784308e-02 -7.2176857380934151e-03 6.4271043226178269e-03  2.3519428690162245e-02 -7.2393009977062056e-03 6.7680602215768274e-03  2.2633869868719216e-02 -8.3867966019155419e-03 6.6624603650254442e-03  2.4899776110718048e-02 -1.0840370106320227e-02 1.1258806041343850e-02  2.6019617322085152e-02 -1.1480395605777724e-02 1.1107415371786621e-02  2.4744122178785598e-02 -1.0008705225901773e-02 1.1096858015720119e-02  2.5170044709462019e-02 -1.0113048252757908e-02 1.0516728584395037e-02  2.6438811814511423e-02 -1.1603843956291264e-02 1.0599060709391430e-02  2.5278541851200063e-02 -1.0996204104342223e-02 1.0716629301032678e-02  2.5587690520752000e-02 -1.0243897583717087e-02 9.9808880724963408e-03  2.6857878096900160e-02 -1.1735071815462725e-02 1.0141041380654055e-02  2.5658989154688474e-02 -1.1162832116331589e-02 1.0222503194513170e-02  2.6004418137531283e-02 -1.0394007819579826e-02 9.4633652438633319e-03  2.7278885624690274e-02 -1.1874548511046372e-02 9.7001203366706666e-03  2.6044754871577404e-02 -1.1337979672580345e-02 9.7491285488103697e-03  2.6422192115039482e-02 -1.0561914082106941e-02 8.9421468028340091e-03  2.7706637510347513e-02 -1.2019830138214161e-02 9.2579384932759100e-03  2.6435466678543674e-02 -1.1523032554462307e-02 9.2753497752348125e-03  2.6837561691326849e-02 -1.0751683501868847e-02 8.4008396553121971e-03  2.8142288449791060e-02 -1.2172548201259086e-02 8.7980585182577467e-03  2.6828515753359847e-02 -1.1721823031156582e-02 8.7834526881221172e-03  2.7241973967275471e-02 -1.0971839801548316e-02 7.8320952145815581e-03  2.8583181517272543e-02 -1.2336907235586838e-02 8.2989864067174891e-03  2.7215531686715429e-02 -1.1943918034883084e-02 8.2628455429680451e-03  2.2464044950725747e-02 -7.9290179849348680e-03 1.0878034766310106e-02  2.2732072612400369e-02 -8.0312311525538860e-03 1.0209310821591475e-02  2.2993139433075637e-02 -8.1684847317154471e-03 9.5788998889026478e-03  2.3252843486669020e-02 -8.3362848213312437e-03 8.9635815229822651e-03  2.3515012053338245e-02 -8.5318357926805026e-03 8.3481672808200444e-03  2.3782305975936679e-02 -8.7536368815426986e-03 7.7178849897904418e-03  2.4055278080834901e-02 -9.0008787695058986e-03 7.0582038764518996e-03  2.5857179582395275e-02 -1.0762581563636313e-02 1.0931457387605233e-02  2.6333321806303829e-02 -1.0842332513137182e-02 1.0392522983482515e-02  2.6797583641894551e-02 -1.0944421375784105e-02 9.9034491874452086e-03  2.7260013310542740e-02 -1.1061320726472760e-02 9.4328453429189264e-03  2.7726870690603960e-02 -1.1188593953736779e-02 8.9578587796626252e-03  2.8200586352555488e-02 -1.1325714831915131e-02 8.4595327638472394e-03  2.8670102863732075e-02 -1.1486778593903029e-02 7.9230758737053389e-03  2.6304775125034593e-02 -1.0039340064725148e-02 1.0462603620681337e-02  2.6900727125093168e-02 -9.9607128011094063e-03 9.9131810526562301e-03  2.7466939246470635e-02 -9.9276517890396470e-03 9.4171184297238940e-03  2.8024885221797885e-02 -9.9213950174058263e-03 8.9350067375259246e-03  2.8587214959591625e-02 -9.9318157603110763e-03 8.4378362863950281e-03  2.9161999804024938e-02 -9.9543651478163075e-03 7.9012986337477775e-03  2.9745688039993751e-02 -9.9977615202528434e-03 7.2986008202069446e-03  2.3490633226710446e-02 -1.2972110098384662e-02 1.2064114204508347e-02  2.3750856842309757e-02 -1.3363537022510318e-02 1.1836355649606259e-02  2.4053761782403905e-02 -1.3708969935771633e-02 1.1620079750037423e-02  2.4734372286104995e-02 -1.4310333666624958e-02 1.1164347417259197e-02  2.5091972863167718e-02 -1.4577051695231137e-02 1.0902559752889803e-02  2.5443426902250540e-02 -1.4823078592590640e-02 1.0619122221773403e-02  2.0276000124149585e-02 -5.5090045644453720e-03 1.0331276679814139e-02  2.0560657420787238e-02 -6.7800643338165809e-03 1.0253021792782882e-02  2.0638888818164742e-02 -6.9147750930665516e-03 9.5522846408329799e-03  2.0305374892597986e-02 -5.5422245453494411e-03 9.5982848754161236e-03  2.0725860614653948e-02 -7.0841593837945097e-03 8.8863626649836984e-03  2.0360467394423862e-02 -5.6313806245087226e-03 8.8916425647904505e-03  2.0814313755105760e-02 -7.2753707947257823e-03 8.2411516614619741e-03  2.0415226022779908e-02 -5.7595315405782480e-03 8.1953900321207751e-03  2.0910760275600959e-02 -7.4855427280763947e-03 7.6027335054967057e-03  2.0474028453554231e-02 -5.9218511374776713e-03 7.4988664714051509e-03  2.1016023917663173e-02 -7.7161492017309681e-03 6.9568078227828555e-03  2.0532122649557796e-02 -6.1110205677250042e-03 6.7790845713475503e-03  2.1103725589730952e-02 -7.9800018153241906e-03 6.2750677707989816e-03  2.0594220168344189e-02 -6.3320300933503064e-03 6.0152209730477248e-03  2.3904177986299513e-02 -1.3717073526020101e-02 1.2603891766995036e-02  2.4794488439868388e-02 -1.3467895114103196e-02 1.2364548720108658e-02  2.5063070023720681e-02 -1.3852907669852728e-02 1.2147723779303459e-02  2.4184159101732827e-02 -1.4115002783721879e-02 1.2499776594973417e-02  2.4502860273470498e-02 -1.4462589261862356e-02 1.2383836405350646e-02  2.5366905601994887e-02 -1.4191856616913653e-02 1.1942379320145696e-02  2.4384950804379663e-02 -1.4022190869702449e-02 1.1400682882754434e-02  2.5692297966146999e-02 -1.4498312240786010e-02 1.1737314276631381e-02  2.1250213393340402e-02 -1.4683574924650089e-03 1.2325091268434972e-02  2.1693579100592632e-02 -1.2133425876519766e-03 1.2273389049118649e-02  2.2142547354873230e-02 -1.0523049127091754e-03 1.2115528701169082e-02  2.2607696098069181e-02 -9.5178289260181850e-04 1.1851427621344616e-02  2.3090699944024774e-02 -8.9272101004792893e-04 1.1476249173248554e-02  2.3595601114