<?xml version="1.0"?>
<VTKFile type="UnstructuredGrid"  version="0.1"  >
<UnstructuredGrid>
<Piece  NumberOfPoints="964" NumberOfCells="4206">
<Points>
<DataArray  type="Float64"  NumberOfComponents="3"  format="ascii">4.861670944494636 3.165642018257675 3.969432872330497  4.972270084964597 3.243188431727228 3.934015046188039  4.857860567867924 3.284027439306707 3.855140114663827  4.837777269009974 3.339935298520955 3.905851870072503  4.955311386469166 3.297582252231833 3.989975307383427  4.842870825161622 3.215918869002716 4.028548150025074  4.938490999650435 3.351749849901056 4.045847886923026  4.824229835059772 3.265990731918052 4.087600929343006  4.817890211022088 3.395645979332228 3.956545552688279  4.921750381652297 3.405737429068002 4.101607831019436  4.805696135288549 3.315890985007071 4.146552002191843  4.798115406539701 3.451208390374647 4.007209678807024  4.905037675325085 3.459605717992267 4.157277260562692  4.787202792849564 3.365676505255861 4.205416745268582  4.778371157419731 3.506668045950752 4.057824166559065  4.888330755926765 3.513372306051767 4.21288208534404  4.768711382728425 3.415365498055563 4.264202828318795  4.758611388891127 3.562033511681428 4.108378065226894  4.750185937677251 3.464993233871438 4.322908828393242  4.871615163478406 3.567029418033611 4.268396341718221  4.738764482033834 3.617349461235469 4.15881979420285  4.831136494763791 1.891321263282532 4.02409832430761  4.956296533320759 1.807208560709913 3.93321244455076  4.976695644055694 1.905080337784034 4.030774555801235  4.979962450638258 1.856854442211778 4.090669182711963  4.960587427937094 1.752508535189705 3.983168645038238  4.832259636170821 1.8444177038843 4.084574171904148  4.983163962773374 1.80873616175799 4.150542499110324  4.964832578722372 1.697901701296356 4.033137763494349  4.833302281387864 1.797630892979079 4.145034796380754  4.98635141877436 1.760681548904528 4.21037274508027  4.969067115333534 1.643356217317888 4.083080711799456  4.834325764283654 1.750920072983061 4.205447846991601  4.989555464478743 1.712642314159139 4.270131005011024  4.973314800884469 1.5888353359326 4.132962855279136  4.83537278644879 1.704229596021124 4.265783110915522  4.977597406385909 1.53430591542656 4.182760541123017  4.83648009968689 1.65751132822525 4.326022499706714  4.992807822224806 1.664597379849434 4.329782901788564  4.981920087553079 1.479738342949227 4.232444850838651  4.837676109968289 1.610745243775453 4.386155058150572  4.996126535036341 1.616515242538312 4.389335454811041  4.76691174886101 2.844776138010002 4.130327970709926  4.876991455182813 2.902850150869355 4.133169639271048  4.774319120071495 2.967683953215253 4.080889350348453  4.755456035417883 3.004699930809069 4.150540795043339  4.860603553028233 2.933526510252073 4.207588388893284  4.749780233662713 2.873520607391814 4.204725482067954  4.732724141810492 2.902102512060833 4.278902302716252  4.844292906511187 2.964049176153888 4.281748200754211  4.736722637355665 3.041533043578876 4.220022155662548  4.71573770603074 2.930556198824891 4.352868079583183  4.828043768235291 2.994442596638625 4.355723504191082  4.718079313126815 3.078206883568674 4.289344750831379  4.698804725811061 2.958912158068382 4.426689940443635  4.811838305723025 3.024724208560088 4.429553671604862  4.699481378656864 3.114775990185873 4.358548642044113  4.681917254173616 2.987184808768298 4.500396712526944  4.795680658561731 3.054914890332392 4.503271706126814  4.680920575898103 3.151252873587237 4.427656370468948  4.665082081952102 3.015381773395975 4.574013989745858  4.779576399484184 3.085034892692964 4.576900586599  4.662373674589428 3.187661177574714 4.496677503771427  4.520702717571171 2.985255448206937 3.992044945807234  4.643540127852481 2.917409662143308 4.070676904177448  4.670237673119112 3.055396314519562 3.987518641050083  4.648862958524856 3.100845724177191 4.04884202246805  4.623968864309475 2.952962430217332 4.140188299484421  4.502172205772433 3.028229752827099 4.055470471406371  4.483774726931648 3.07095373451681 4.11887839210237  4.604535449558501 2.988284755057183 4.209525227807831  4.627705697656493 3.146026700836273 4.110091002064728  4.465481387970826 3.113501860988984 4.182221070488007  4.58519067667416 3.023445993701962 4.278730728892532  4.606665016887906 3.191060804741466 4.171266443166174  4.447234095565808 3.1559441676462 4.245495896243188  4.565899267102469 3.058500571687521 4.347823457638446  4.585673046472934 3.235993943375852 4.232359944485176  4.428988187229722 3.19832937526553 4.308687283946986  4.546631108583743 3.093481135534216 4.416810273031727  4.564689700227643 3.280849561542823 4.293363630919777  4.410707447553698 3.240715421936797 4.371751113026725  4.527352726610687 3.128412443874479 4.485697368659015  4.543650670996517 3.32564516662157 4.354232763874665  4.360664797803079 3.18468581763018 3.737407982761436  4.472799627368061 3.211822417188494 3.760394674344905  4.416482339740262 3.25621607831322 3.648176081593908  4.395975046272186 3.317346660558512 3.680493162001477  4.451757818304608 3.270112798301472 3.802165092627679  4.34004127440034 3.242915549069938 3.777509854443453  4.430934069564622 3.328267740994896 3.844233244013258  4.319643193479297 3.301041041609733 3.817998037632897  4.375700691732404 3.378468303103898 3.713285784331554  4.299309108992954 3.359168127863513 3.85867142380264  4.410194852998876 3.386387530012909 3.886447023315545  4.355463902945536 3.439670115669386 3.74625337251856  4.278935371132377 3.417347324284711 3.899376439697016  4.389431892680201 3.44451854535328 3.928673034596429  4.335156080256439 3.500967592927521 3.779239661715219  4.25843244870117 3.475595083472551 3.939998556371395  4.368571222966474 3.502684467084149 3.970821067709194  4.314687440400653 3.562357361004808 3.812120231144726  4.237673338744651 3.533925514581125 3.980402412494517  4.347522054205656 3.560925271473199 4.012741006985153  4.29399156386251 3.623865753502258 3.844762831190273  5.333988220984716 3.327329082185125 3.918637670183334  5.340622060329455 3.206602620425482 4.027014750522026  5.467970983909649 3.274239517364428 3.972516233967275  5.467154703115167 3.327600272351413 4.034242165492609  5.33667765219655 3.257224435470595 4.09206299028449  5.329159295170447 3.384519524911183 3.97573262216984  5.332611211674863 3.30768954241904 4.156969616876287  5.324208342030557 3.441513478224366 4.03271146770862  5.4661278882544 3.380782968382481 4.095852748744353  5.319209213898779 3.498363068483177 4.089607514475073  5.328492980915391 3.358003755979651 4.221730815164648  5.465033490024608 3.433847318589553 4.157400289626328  5.314223100292713 3.55509697289168 4.146423947869322  5.324380193684424 3.408208871861408 4.286401789991188  5.46395087696999 3.486818820940433 4.218879340806899  5.309295871324895 3.611731771679422 4.203158732142852  5.320332828301538 3.458311330595356 4.350988794856218  5.462956363997549 3.539717568263271 4.280285421287611  5.304493441251951 3.66824681487083 4.259821038568009  5.316420694018031 3.50828315564818 4.415513800078958  5.462140715252784 3.592519496768709 4.341620858581044  4.547217598211874 2.742581184869082 4.117064671591086  4.656261941702246 2.807430068104886 4.119035038820164  4.534627208653336 2.871664951196835 4.059060356364737  4.515549386528082 2.9048233505363 4.129153890536486  4.638141470487733 2.834897165405917 4.193135743777472  4.529249399564005 2.765423913672818 4.192122588567491  4.511374732491266 2.788119691822933 4.267012228151684  4.620119191578925 2.862158768358293 4.266943106951109  4.496628371620433 2.937726616031922 4.199021542802436  4.47779545025537 2.970466448112735 4.268767192508381  4.602173123633037 2.889289418989279 4.340583139319637  4.493583099981648 2.810678265546635 4.341693084083271  4.459020719635062 3.003087138051675 4.338398977013077  4.584284008966627 2.916319340582911 4.414079422231763  4.475847966393435 2.833123371955362 4.416236049638073  4.440272990344183 3.035632670574985 4.407925554805995  4.566445493608822 2.94327112797253 4.487456272313174  4.458164094735335 2.855491013130153 4.490647088791021  4.421506515348353 3.068138433246586 4.47731829265081  4.548643863632641 2.970158232618574 4.560718310509091  4.440509753445949 2.877825564813373 4.56492327899752  4.472031415522371 2.229592389262311 4.134139705490029  4.592552872261765 2.251467948422923 4.154452293763769  4.504323413519156 2.378999728811303 4.151805587796273  4.491561165859061 2.37575090259823 4.230086851888209  4.58136396198117 2.240630588324844 4.232532540055006  4.462907111324701 2.217885092834946 4.21098279056141  4.570129331737527 2.229840555235601 4.31036955826705  4.453736647667039 2.206221300975463 4.287611796642048  4.478783799817905 2.372535215581117 4.308088496042574  4.558887475237678 2.219069852172146 4.38800230225309  4.444572395463724 2.194581830198422 4.364030593284595  4.466028870157741 2.369298603756227 4.3858542433484  4.54767823422125 2.208280837007998 4.465470154087084  4.435431295905595 2.182912919790498 4.440275718167854  4.453319457374683 2.365991284512325 4.4634349321528  4.536528681335791 2.197466049361784 4.542814069267644  4.426347610043571 2.171210911193314 4.516379702227801  4.44066919017611 2.362623760666266 4.54086306796066  4.417421789161565 2.159423183049503 4.59236201960205  4.525554406328889 2.186574289428071 4.620017217956002  4.42816539862448 2.359201595991546 4.618188234963354  4.531585308148441 3.124474170698994 3.883629639969794  4.413362760428241 3.046804090415936 3.914239700173737  4.394159331490313 3.095021641329595 3.971448494999215  4.512313048053571 3.176360065682464 3.937372349802799  4.375119805735861 3.142968498612337 4.028728600346482  4.493202392844165 3.228010970557858 3.991221440259769  4.356174954249415 3.190761645513768 4.086039405798763  4.474197724752933 3.279515912205445 4.045108287914163  4.337255113536509 3.238479866430296 4.1433354843427  4.455224561310955 3.330945466167788 4.098979925949322  4.318297771467963 3.286174023433037 4.200564764173758  4.436
[...]
<PointData  Vectors="f_16"> 
<DataArray  type="Float64"  Name="f_16"  NumberOfComponents="3" format="ascii">5.8907752555793939e-02 -2.5184667744903567e-02 1.2902342500664051e-02  5.7748229480174322e-02 -2.4730522242550138e-02 1.2542642486564712e-02  5.9279619045843342e-02 -2.6429875499605696e-02 1.1147428344478905e-02  5.8253673548776107e-02 -2.5623729806221976e-02 1.0484463387078922e-02  5.6819212379652061e-02 -2.3863923364585114e-02 1.2056937868702379e-02  5.7935662459881472e-02 -2.4314704490038027e-02 1.2447593555635759e-02  5.5971783733753583e-02 -2.3086911682077632e-02 1.1514647492474279e-02  5.7068501940010674e-02 -2.3517798439294801e-02 1.1949645070024098e-02  5.7325770807138979e-02 -2.4879098690418273e-02 9.7923974852567285e-03  5.5165565217693752e-02 -2.2372677139182128e-02 1.0927423463913226e-02  5.6258152983372084e-02 -2.2773640892787914e-02 1.1414289027286332e-02  5.6455016206983191e-02 -2.4184193397037299e-02 9.0841814934125714e-03  5.4377161034004660e-02 -2.1707650202025107e-02 1.0300077741891780e-02  5.5466925724532413e-02 -2.2072319926718091e-02 1.0841894927962198e-02  5.5601878767620731e-02 -2.3529100995787096e-02 8.3528586954962139e-03  5.3591647324418748e-02 -2.1087977098653902e-02 9.6318837195084571e-03  5.4670169846208122e-02 -2.1413319883475158e-02 1.0229918768772800e-02  5.4737990102626082e-02 -2.2912690327743891e-02 7.5891612128964328e-03  5.3885152506388236e-02 -2.0824917942118149e-02 9.6033498314746311e-03  5.2816479240605001e-02 -2.0530836049254413e-02 8.9381279256647624e-03  5.3870358965862536e-02 -2.2357225932297494e-02 6.8110426418553586e-03  5.9408711694543807e-02 -2.5053711446419897e-02 2.0211908920695434e-02  5.8663428799875177e-02 -2.4460602058888233e-02 1.9953969489227057e-02  5.8350479043131259e-02 -2.4393161237530374e-02 2.0283742336576236e-02  5.8582880455357651e-02 -2.4641982312428402e-02 2.0502233652040760e-02  5.8950280771991818e-02 -2.4773343009727677e-02 2.0043711546963102e-02  5.9577127262404057e-02 -2.5314700250748733e-02 2.0452254560674257e-02  5.8773415465635838e-02 -2.4812039960678649e-02 2.0665372783341119e-02  5.9199521845018463e-02 -2.5019913615342709e-02 2.0105834642074209e-02  5.9712106986100640e-02 -2.5493835997022547e-02 2.0627625460795190e-02  5.8948761177742615e-02 -2.4930607815540590e-02 2.0781829105718522e-02  5.9431384142406153e-02 -2.5214580125703680e-02 2.0136403682131022e-02  5.9836268748897706e-02 -2.5618063792236058e-02 2.0748680822257684e-02  5.9126000855598111e-02 -2.5010637080949149e-02 2.0856716571790036e-02  5.9661362530278414e-02 -2.5366684141695291e-02 2.0136284223756736e-02  5.9961750657397457e-02 -2.5702184059604137e-02 2.0823462545392468e-02  5.9902105502553774e-02 -2.5482890730637968e-02 2.0109398663059039e-02  6.0097017060756153e-02 -2.5755067698625362e-02 2.0856467526922745e-02  5.9317628249145569e-02 -2.5061142189179059e-02 2.0894853275146476e-02  6.0163979404158623e-02 -2.5569776716169074e-02 2.0058287970968640e-02  6.0249415301629833e-02 -2.5782564407699458e-02 2.0852573098792158e-02  5.9531476229395301e-02 -2.5091958605479411e-02 2.0900164814558392e-02  5.9504564740640413e-02 -2.4545025150116598e-02 1.6046626022747593e-02  5.8367707149374851e-02 -2.3811729747826117e-02 1.6030394892225543e-02  5.9518030629010586e-02 -2.4796934946403792e-02 1.4819066744199055e-02  5.8655833541828115e-02 -2.3943313191270865e-02 1.4651915730468845e-02  5.7630512947580204e-02 -2.3015162007641615e-02 1.6045543117782366e-02  5.8742244337133480e-02 -2.3742923032677450e-02 1.6063176614615520e-02  5.8062655066203665e-02 -2.2992831856514032e-02 1.6000779786255592e-02  5.6968190767751947e-02 -2.2268010703410633e-02 1.5965312898423553e-02  5.7894856706957237e-02 -2.3141566056391352e-02 1.4419231003473662e-02  5.7430298385561969e-02 -2.2281220734534913e-02 1.5875965413159679e-02  5.6344610167022163e-02 -2.1563748598076287e-02 1.5815520863650238e-02  5.7187614104882559e-02 -2.2386404755594728e-02 1.4140680239314356e-02  5.6818294895916485e-02 -2.1601481446112375e-02 1.5698876944942236e-02  5.5741925840944513e-02 -2.0894895659133054e-02 1.5608993617851667e-02  5.6500122770521938e-02 -2.1667509985264292e-02 1.3818353890313486e-02  5.6208523067892736e-02 -2.0952045318907556e-02 1.5472980572331443e-02  5.5146698371270224e-02 -2.0261176536203143e-02 1.5352628164735684e-02  5.5808991861056825e-02 -2.0984151889268329e-02 1.3452522851345136e-02  5.5636417495800491e-02 -2.0379503084393201e-02 1.5224967361755583e-02  5.4599222970010977e-02 -1.9710078820550724e-02 1.5076317376032013e-02  5.5144359284865559e-02 -2.0383094445296585e-02 1.3078091024554470e-02  6.2354711247801439e-02 -2.7343291159597514e-02 1.2806125379280813e-02  6.0872087216893758e-02 -2.5735876321656848e-02 1.4558902417378191e-02  6.0996610513645758e-02 -2.6408732416898350e-02 1.3008947459336784e-02  6.0015968082385629e-02 -2.5533749484217796e-02 1.2540853639708948e-02  6.0001434730627821e-02 -2.4854961590870615e-02 1.4369380181422003e-02  6.1427865814412480e-02 -2.6390267497404928e-02 1.2387981138784601e-02  6.0600523361216158e-02 -2.5493082587648215e-02 1.1983095136633851e-02  5.9237187473729774e-02 -2.4029797940386028e-02 1.4143898283871201e-02  5.9162778247106883e-02 -2.4703081051820057e-02 1.2083276116678492e-02  5.9823796682055536e-02 -2.4626249329306644e-02 1.1580062597890094e-02  5.8528151495151511e-02 -2.3242596214570990e-02 1.3886079564047020e-02  5.8374101071512127e-02 -2.3910576448067506e-02 1.1608981822012756e-02  5.9054799741455284e-02 -2.3779590888230045e-02 1.1163700783227811e-02  5.7833600148130319e-02 -2.2485934387684984e-02 1.3593309032667601e-02  5.7602596138190493e-02 -2.3147723252874921e-02 1.1108363039779407e-02  5.8260244900152434e-02 -2.2951674882778279e-02 1.0718097931975222e-02  5.7124229745087192e-02 -2.1758495129854963e-02 1.3260923192466519e-02  5.6810483082852678e-02 -2.2411831914384023e-02 1.0572341888351570e-02  5.7483426183184486e-02 -2.2180288251691833e-02 1.0288066081762519e-02  5.6433096414677295e-02 -2.1105272347211830e-02 1.2924565342555388e-02  5.6014841589925458e-02 -2.1746545299334352e-02 1.0062708468367453e-02  6.4947848018192880e-02 -3.2115825568787532e-02 8.0520170854788253e-03  6.3840494824675728e-02 -3.0910650242895736e-02 8.7201680923727938e-03  6.4961004720017340e-02 -3.3177238468146943e-02 7.1257219258764161e-03  6.4081389900934538e-02 -3.2695345760389287e-02 5.9772032861650530e-03  6.2885461221310376e-02 -3.0212891242445330e-02 7.7229877579572418e-03  6.4101046853312610e-02 -3.1432238500458433e-02 6.9897648411065489e-03  6.2020668948113637e-02 -2.9499673268326362e-02 6.8191123406527157e-03  6.3342483281703332e-02 -3.0713785356666034e-02 6.0651190169794360e-03  6.3287424581124449e-02 -3.2136727294504341e-02 4.9515047325628062e-03  6.2616645303712581e-02 -2.9953833729467381e-02 5.2148255290148451e-03  6.1198008384483284e-02 -2.8772169855712130e-02 5.9713769695190055e-03  6.2524173432589869e-02 -3.1526445288765852e-02 4.0009284963061073e-03  6.1865205725412681e-02 -2.9154300470915162e-02 4.3924981031108435e-03  6.0363036643392411e-02 -2.8026866652100378e-02 5.1438866577901820e-03  6.1738445949205821e-02 -3.0870826156302503e-02 3.0782736276152348e-03  6.1074234244945111e-02 -2.8329614859373811e-02 3.5876919441865025e-03  5.9490303909363586e-02 -2.7271745414376308e-02 4.3210989340487782e-03  6.0928399845051065e-02 -3.0174799889823599e-02 2.1810365253738034e-03  6.0313530050275531e-02 -2.7494353239523078e-02 2.8516439672662992e-03  5.8656746301800705e-02 -2.6520741317236706e-02 3.5471296958327187e-03  6.0189880886093977e-02 -2.9421689762020007e-02 1.3369352761625497e-03  5.4104414148128714e-02 -2.2567704473129658e-02 1.3055531753985238e-02  5.3832558981665189e-02 -2.1680428330005146e-02 1.4505363211602037e-02  5.2935728507285625e-02 -2.1408199682724824e-02 1.4035328878671661e-02  5.2420366680886385e-02 -2.0602668062612652e-02 1.3774526914363911e-02  5.3295653800071334e-02 -2.0835185126244365e-02 1.4310987013268170e-02  5.3483488349707016e-02 -2.1706269813747597e-02 1.2699083849435277e-02  5.2688815230544923e-02 -2.0060007429860489e-02 1.4045039159859175e-02  5.2799379058732977e-02 -2.0928594581510442e-02 1.2280586759425756e-02  5.1810979348288128e-02 -1.9848092035511009e-02 1.3478984236572920e-02  5.2096805206413924e-02 -2.0211346162193080e-02 1.1821713275667174e-02  5.2061095070739638e-02 -1.9339342255557616e-02 1.3725881143981024e-02  5.1166949520424471e-02 -1.9135778615170469e-02 1.3154161436449076e-02  5.1409300338121647e-02 -1.9537981589603688e-02 1.1330029234426255e-02  5.1448474219086410e-02 -1.8659354111654525e-02 1.3367718710204380e-02  5.0538307120416272e-02 -1.8454231828932882e-02 1.2805402797754037e-02  5.0761100488035241e-02 -1.8904286845572861e-02 1.0806583478976216e-02  5.0877164565744870e-02 -1.8016674103042883e-02 1.2975126714769211e-02  4.9962968457557974e-02 -1.7798972716003312e-02 1.2431177082503490e-02  5.0165910061175878e-02 -1.8310164007997856e-02 1.0249824848082843e-02  5.0364838881405694e-02 -1.7414656663121045e-02 1.2545530327347664e-02  4.9475911449770836e-02 -1.7172970867424631e-02 1.2020674439046145e-02  6.1560841027720678e-02 -2.5894122385987213e-02 1.5829055027603286e-02  6.0603415152710755e-02 -2.5291879711779416e-02 1.5816523827867857e-02  6.1960232450963042e-02 -2.6506739241222921e-02 1.4340208306219850e-02  6.1104856546592382e-02 -2.5599561008708579e-02 1.4157471800862393e-02  5.9822379430725589e-02 -2.4468648197974379e-02 1.5815261085694473e-02  6.0811031717980163e-02 -2.5080127861207852e-02 1.5872391575876270e-02  6.0163942423003457e-02 -2.4314775811089907e-02 1.5870099378116721e-02  5.9136120673273972e-02 -2.3704066989856134e-02 1.5750913875620203e-02  6.0359685724232587e-02 -2.4740222393816652e-02 1.3966683947260371e-02  5.9669776921570203e-02 -2.3917640626854617e-02 1.3755745444068020e-02  5.8502025151277309e-02 -2.2972494964151945e-02 1.5640757820215012e-02  5.9565278665956026e-02 -2.3582188740560211e-02 1.5828891772957654e-02  5.8990641488764532e-02 -2.3119808465645302e-02 1.3519324204941523e-02  5.7883451638807364e-02 -2.2268797139451856e-02 1.5485695271040895e-02  5.8978644754136243e-02 -2.2873842074312634e-02 1.5749904859237652e-02  5.8283854497282135e-02 -2.2341111680208858e-02 1.3244953436767876e-02  5.7255241556003547e-02 -2.1589392673392740e-02 1.5283103707917642e-02  5.8371667896986709e-02 -2.2185976284179794e-02 1.5628851347111877e-02  5.7578740805592221e-02 -2.1642150796596121e-02 1.2967317005067116e-02  5.6656125832237475e-02 -2.0987551051244512e-02 1.5058921700740902e-02  5.7763829116203327e-02 -2.1566404233725110e-02 1.5473306266460802e-02  6.1820987272134163e-02 -2.6114402853336834e-02 1.9015763838991076e-02  6.0927643012161747e-02 -2.5623924006571496e-02 1.9342124037643581e-02  6.1631384855611690e-02 -2.5901463040954340e-02 1.8395342843079306e-02  6.1185613092925230e-02 -2.5472291111730442e-02 1.8780447378097094e-02  6.0603385974097576e-02 -2.5377130240720858e-02 1.9767896286172756e-02  6.1488435003301166e-02 -2.5858803050895229e-02 1.9447714545533772e-02  6.0325360616231595e-02 -2.5131925484081930e-02 2.0091558793570878e-02  6.1185071337548975e-02 -2.5608158773287832e-02 1.9790139016415517e-02  6.0797221783626378e-02 -2.5061083710140177e-02 1.9086611074706789e-02  6.0067288603483544e-02 -2.4879910934771227e-02 2.0334527888233249e-02  6.0898895019304428e-02 -2.5356182855450410e-02 2.0052426879165086e-02  6.0436095606914729e-02 -2.4664231703056330e-02 1.9320450545703999e-02  5.9815148412988940e-02 -2.4621243493646194e-02 2.0510767364823219e-02  6.0620119925536418e-02 -2.5100994272695146e-02 2.0246983008157547e-02  6.0085121207285375e-02 -2.4275379215179433e-02 1.9492056836569530e-02  5.9559436316324398e-02 -2.4357055946182798e-02 2.0628904866288472e-02  6.0339736506609197e-02 -2.4841522007234152e-02 2.0383784355399618e-02  5.9728445076743714e-02 -2.3889399799688096e-02 1.9609554290321185e-02  6.0046345762304207e-02 -2.4579306812052233e-02 2.0476489212683267e-02  5.9288610494532608e-02 -2.4088634212170869e-02 2.0683026628368663e-02  5.9343888453095982e-02 -2.3502818519241485e-02 1.9677677763163422e-02  6.2734000947874333e-02 -2.8674613409229586e-02 1.0830611522834545e-02  6.3620358067164234e-02 -2.9014004607306382e-02 1.1021253849494574e-02  6.2712262545652778e-02 -2.8055635818779696e-02 1.0385179338375147e-02  6.1734095734515167e-02 -2.7786339520315707e-02 1.0117086874917107e-02  6.1903750894523595e-02 -2.7137633768967773e-02 9.8065900198447756e-03  6.0833573802921113e-02 -2.6931399570953904e-02 9.4557816219562364e-03  6.1138612527270458e-02 -2.6232819227572129e-02 9.2638793844827816e-03  5.9984242827556780e-02 -2.6095796512534696e-02 8.8199432076014779e-03  6.0365758147621136e-02 -2.5329207144838935e-02 8.7298172546114786e-03  5.9139375478731229e-02 -2.5271804039745289e-02 8.1837556425782363e-03  5.9553197432288388e-02 -2.4431516126345736e-02 8.1858372125479476e-03  5.8271884218165260e-02 -2.4462325840696700e-02 7.5335689544684279e-03  5.8741756168032594e-02 -2.3581125099821094e-02 7.6632210620843407e-03  5.7419091850103070e-02 -2.3679246378067866e-02 6.9120150788863329e-03  5.7800151009276123e-02 -2.4019698427966609e-02 2.0428405201298631e-02  5.7200639271164817e-02 -2.3634768874002659e-02 2.0322213379734163e-02  5.6883725181874963e-02 -2.3386224845111485e-02 2.0447559002733113e-02  5.7095200652484170e-02 -2.3523428549766429e-02 2.0761901814270262e-02  5.7475838987217955e-02 -2.3844083846254169e-02 2.0541258180350977e-02  5.7971057500777509e-02 -2.4173057447949481e-02 2.0751736036289298e-02  5.7264022120039559e-02 -2.3597495372204621e-02 2.1009732674992336e-02  5.7701141687937448e-02 -2.3990877617228103e-02 2.0712862112748916e-02  5.8101318558243568e-02 -2.4257035880368399e-02 2.1000286297389252e-02  5.7415440841906980e-02 -2.3628311860467426e-02 2.1201629378178020e-02  5.7907736207529981e-02 -2.4091460140459930e-02 2.0843194265463029e-02  5.8217126707416217e-02 -2.4293995695182834e-02 2.1188215289595767e-02  5.7568401273218960e-02 -2.3628633245253428e-02 2.1346636536915039e-02  5.8115665780108697e-02 -2.4156649627858223e-02 2.0936119774556769e-02  5.8335002939858646e-02 -2.4297480989906178e-02 2.1325952828968070e-02  5.7736822572671417e-02 -2.3604934028627081e-02 2.1450897819828885e-02  5.8341153121726247e-02 -2.4194057479894247e-02 2.0995424978129815e-02  5.8467774170914984e-02 -2.4275514631157600e-02 2.1419481060500269e-02  5.7930561187346158e-02 -2.3555004326829335e-02 2.1515846011320918e-02  5.8598041956489849e-02 -2.4210670974519025e-02 2.1025001279519579e-02  5.8627704325550964e-02 -2.4232338335198111e-02 2.1470422690805568e-02  5.9368666409790827e-02 -2.4334758697767932e-02 1.7104208323963012e-02  5.8214781060606929e-02 -2.3594974546509263e-02 1.8373117779298655e-02  5.8051839899905720e-02 -2.3471429717370800e-02 1.7262567418571469e-02  5.7444693312705360e-02 -2.2765722315081938e-02 1.7438476209147114e-02  5.7738679094307695e-02 -2.3047956562429313e-02 1.8688564926540936e-02  5.8722738327633514e-02 -2.3630941796139594e-02 1.7277982848109694e-02  5.6888030188356614e-02 -2.2103767652475535e-02 1.7503195597448899e-02  5.7304003138181521e-02 -2.2518777641298181e-02 1.8893277614698147e-02  5.8141932980083674e-02 -2.2967067286312808e-02 1.7352846642783151e-02  5.6362004042525643e-02 -2.1473624112506775e-02 1.7487799417118068e-02  5.6894935390179702e-02 -2.2007026252618866e-02 1.9009904197470999e-02  5.7601295243823326e-02 -2.2332548192418297e-02 1.7357989098230581e-02  5.5854625128160099e-02 -2.0870856564315310e-02 1.7408731847629168e-02  5.6501746230541022e-02 -2.1510411723455213e-02 1.9057473123239084e-02  5.7078568374721909e-02 -2.1723396290877117e-02 1.7304833593965830e-02  5.5358613848307245e-02 -2.0293975159716822e-02 1.7275239270694628e-02  5.6119087258678778e-02 -2.1030224627094168e-02 1.9046311347238637e-02  5.6559227458260676e-02 -2.1138087573770545e-02 1.7197817399540464e-02  5.4926190481915639e-02 -1.9792977670682076e-02 1.7118900516301400e-02  5.5774728190956344e-02 -2.0603371773768732e-02 1.8989858730647978e-02  5.6088593870298423e-02 -2.0629923773826227e-02 1.7065744698223723e-02  5.6050048676972691e-02 -2.3160563679383368e-02 1.3733482276615519e-02  5.4827206162888671e-02 -2.2083514230016945e-02 1.4870293995320636e-02  5.5081766928745897e-02 -2.2881346895142322e-02 1.3417168953777991e-02  5.4398917009329181e-02 -2.1982493667286974e-02 1.3100684442056851e-02  5.4240452290911206e-02 -2.1223249773791298e-02 1.4733447033530711e-02  5.5289005375165221e-02 -2.2264959188868585e-02 1.3447683527516982e-02  5.3684780825342303e-02 -2.1181745093392428e-02 1.2703659372159448e-02  5.3609880425751266e-02 -2.0438155518648582e-02 1.4503171788841139e-02  5.4545783784112463e-02 -2.1468769531971708e-02 1.3062111528085360e-02  5.2969646091899719e-02 -2.0450754998052951e-02 1.2252010582916252e-02  5.2973438861317383e-02 -1.9709448175893818e-02 1.4202499017841350e-02  5.3819508282334783e-02 -2.0736185697905880e-02 1.2618468249109239e-02  5.2271325697154154e-02 -1.9770581824677329e-02 1.1757421994702639e-02  5.2352489253580249e-02 -1.9026613087999990e-02 1.3851783266815266e-02  5.3111417375362645e-02 -2.0053259897058369e-02 1.2128728915392130e-02  5.1603488628638880e-02 -1.9134552791747982e-02 1.1223872865515750e-02  5.1763348656396146e-02 -1.8386749927336094e-02 1.3459991220866604e-02  5.2424900255695621e-02 -1.9414511574630981e-02 1.1597025282603035e-02  5.0979164703276646e-02 -1.8541207111516803e-02 1.0651329310479225e-02  5.1219642366826516e-02 -1.7791044999459257e-02 1.3029293236597015e-02  5.1771646109148389e-02 -1.8829682057711912e-02 1.1031274330587896e-02  5.9014956472869910e-02 -2.4801457327975548e-02 2.0351314161750848e-02  5.9103780837212440e-02 -2.4957949387900306e-02 2.0698268579145546e-02  5.9169130140940190e-02 -2.5044042883092477e-02 2.0952822729555700e-02  5.9225921252377599e-02 -2.5081790526533716e-02 2.1140241434078548e-02  5.9285317294410597e-02 -2.5085877123639376e-02 2.1272333441161306e-02  5.9356094615984754e-02 -2.5065280145245086e-02 2.1355573300090972e-02  5.9445769963763551e-02 -2.5025279447758061e-02 2.1392341428670691e-02  5.4177977411951565e-02 -2.0957104060540972e-02 1.8687793817720504e-02  5.3606385724680156e-02 -2.0637822474132914e-02 1.9352314255746125e-02  5.3184067779012620e-02 -2.0286982032416093e-02 1.8536052738208034e-02  5.3955395614223405e-02 -2.0444532099593696e-02 1.8986985497910915e-02  5.3689613188714375e-02 -1.9945319061981687e-02 1.9179223590084681e-02  5.3410883794028745e-02 -1.9892754967562570e-02 1.9968963665765175e-02  5.2741299818590381e-02 -1.9271498114345306e-02 1.8973429825171789e-02  5.3408430972632343e-02 -1.9456787816338760e-02 1.9296657071183020e-02  5.3257817161081550e-02 -1.9521034811178603e-02 2.0168765969377792e-02  5.2465964601409093e-02 -1.8786702925123289e-02 1.9094016595717675e-02  5.3132446396879120e-02 -1.8976566691491080e-02 1.9356442728099253e-02  5.3108156474776923e-02 -1.9147524578250925e-02 2.0318805185156524e-02  5.2197728451088714e-02 -1.8311854983277986e-02 1.9168271058075375e-02  5.2876786200185238e-02 -1.8503421556753278e-02 1.9367367142506871e-02  5.2982346033402405e-02 -1.8769016774909324e-02 2.0425495573893972e-02  5.1960314816245051e-02 -1.7845735889041401e-02 1.9203132579196262e-02  5.2676461601414225e-02 -1.8063437061626289e-02 1.9340961413297494e-02  5.2901044868047871e-02 -1.8388424052773869e-02 2.0492111269173843e-02  5.1772668606664692e-02 -1.7386007109162802e-02 1.9200608705626922e-02  6.5350790259960143e-02 -2.9981797350892046e-02 1.0685740259791051e-02  6.4171204155800535e-02 -2.8516404394007790e-02 1.2473555552783551e-02  6.4588060876881140e-02 -2.9641548057896622e-02 1.0867610592732460e-02  6.3783016596967793e-02 -2.8637435115197452e-02 1.0266381020523766e-02  6.3424350832590320e-02 -2.7491384228882299e-02 1.2151064690914431e-02  6.4732519547113163e-02 -2.8902416000092836e-02 1.0181415047664804e-02  6.3089558516340960e-02 -2.7666720002891155e-02 9.7512564224155000e-03  6.2759507932112490e-02 -2.6521769095484992e-02 1.1864049804653285e-02  6.4167838296132609e-02 -2.7878095204887675e-02 9.7601252028015565e-03  6.2437103979