<?xml version="1.0"?>
<VTKFile type="UnstructuredGrid"  version="0.1"  >
<UnstructuredGrid>
<Piece  NumberOfPoints="957" NumberOfCells="4065">
<Points>
<DataArray  type="Float64"  NumberOfComponents="3"  format="ascii">3.043337470832685 3.893618346309415 2.516291880899538  3.171609049366181 3.87286483450106 2.490000571147053  3.087798057669787 3.917798524558844 2.390938770672379  3.100068746045136 3.986679719396641 2.406217108565277  3.189780426668619 3.937017967640141 2.512142779613798  3.058048653443291 3.959331837489706 2.535455499325632  3.072629858494173 4.025016123243442 2.554580916281363  3.207731134543272 4.00123690506112 2.534209508750396  3.11222365165228 4.055480385464032 2.421455740326946  3.087126577165476 4.090655244845169 2.57367948018021  3.225597639964185 4.065490386986919 2.556268225717969  3.124294686886377 4.124235852928926 2.436668903568791  3.101595944389625 4.156252966510735 2.592770270060065  3.243470314686859 4.129735858119296 2.578342823125424  3.136328223147776 4.192948788633448 2.451869455965109  3.148360327494768 4.261610757842181 2.467062592527846  3.261412337820681 4.193932759584754 2.600438559553552  3.116076457221233 4.221786456845985 2.611855269395502  3.160416617749657 4.330196412968883 2.482263537373534  3.279469054816594 4.258040411934458 2.622554988535147  3.130607439357192 4.287250560798807 2.630930292895758  2.84484057281759 3.883302610757409 1.417791590697213  2.962801942149008 3.909921285352783 1.500148120422462  2.953389082321891 3.85185893576661 1.359735449164441  2.959171783424984 3.926401429032143 1.321370357601274  2.968447746223973 3.987958802619286 1.473545423592708  2.84941513470772 3.959594218084547 1.385481614695927  2.854055145285535 4.03585764948037 1.353216851474268  2.97414925049575 4.065932658645056 1.446992721008866  2.965014391448857 4.000885257872757 1.283082843530934  2.858729192586292 4.11207999337672 1.320966008385811  2.979865646867853 4.143847175019324 1.420459349549184  2.97087965412462 4.075317846600126 1.24480226589905  2.863385810602272 4.188266319099243 1.28871139089611  2.985561335130149 4.221714070366069 1.39392998275468  2.976731368284527 4.149702130978914 1.206519961929826  2.867984940713338 4.264415520523269 1.256445627412893  2.991205945318364 4.299530499159883 1.367398011659721  2.982539413873081 4.224038353191673 1.168226396800125  2.872476795220495 4.340521981420987 1.22414197041561  2.99674461700831 4.37727787191493 1.340829888874677  2.988241322681104 4.298309033719353 1.129900897969816  2.415496698209911 3.978765562570008 1.614341330471688  2.398680058404701 4.003260424359119 1.757805539415065  2.525476660868341 3.987489221245567 1.716882274147504  2.532099561818627 4.063477344871993 1.705150954460259  2.406127577013462 4.077961162981383 1.74703079316369  2.422017179463774 4.054381667232915 1.596346527236592  2.538676906071279 4.139461626135249 1.693460057342382  2.41348707188387 4.152645806826512 1.736305738422641  2.428472378064098 4.129999211725467 1.578390950432533  2.545220038527195 4.215423158122945 1.681785852230832  2.420783334760751 4.22729710622944 1.72560012765237  2.434877897926245 4.205601633835453 1.560446309844156  2.551731052423547 4.2913571109378 1.670103693190745  2.428046503811087 4.301909833181452 1.714884052508647  2.441252470861249 4.281182636020658 1.542486848108856  2.558204519847453 4.367274079183931 1.658387168746991  2.435305256556608 4.376490024725643 1.704129541174972  2.44761431382495 4.356751826946055 1.524486944407695  2.564641734074663 4.443205098148505 1.646604836038597  2.442581026184136 4.451059385679192 1.693306405075739  2.453966414004886 4.432322165533386 1.506424254347919  2.853165369381441 3.937830702911942 1.561331494545815  2.857466638957343 4.01620937781802 1.539231266046828  2.86184284532017 4.094538069734263 1.5171735104903  2.866229848615792 4.172830949023171 1.495131354696916  2.870593634842177 4.251086105992298 1.473090602853354  2.874899578541553 4.329305704004459 1.451041825013243  2.879080296033925 4.407479437435927 1.428946289737187  2.864564592805471 3.983786077582186 1.962525380141928  2.981070972564694 3.971069817371417 1.848813711037325  2.868097409021487 3.976153565168493 1.803897990011077  2.872579490647001 4.054011886579885 1.796879267626464  2.986856388489704 4.048938602775813 1.844600467288868  2.869773036284994 4.05969424015738 1.960926186363981  2.875001402701627 4.135540089211154 1.959358535289073  2.992658443659546 4.126711699389924 1.840412353500269  2.877104305606198 4.131799146549015 1.789901319012361  2.998448521594462 4.204418010764718 1.836238685922174  2.880221433032035 4.211312613575131 1.957805703971461  2.881627978460566 4.209528662885406 1.782940260044779  2.885404874456313 4.287033672488752 1.956254772900098  3.004208830699988 4.282058435997408 1.832070972203836  2.886121056579593 4.287209968958924 1.775982217067293  2.89052843969836 4.362701347499975 1.954688223384395  3.00992466052021 4.359645646229322 1.827899591176827  2.890555840855737 4.364844100106271 1.769017634670078  2.895548290436364 4.438316547485576 1.953066875891606  3.015539341101328 4.437162143963235 1.82367626934011  2.89486612054244 4.442433205258567 1.76199107574657  2.283021603990135 3.96096962292933 1.513887819470633  2.272035887914794 4.000913156606151 1.663724800412715  2.279737738146166 4.07525372963166 1.647825388261515  2.290302763375482 4.035269360474468 1.489849900776532  2.287315344563661 4.149583988162409 1.631977199321231  2.297482426833231 4.109576160337097 1.465846752726537  2.294816697914024 4.223876015947027 1.616146997615975  2.304595630964064 4.183865634928198 1.441855162550786  2.302285841541003 4.298124469841355 1.600305260459891  2.311678423194969 4.258127686284997 1.417847594311979  2.309760770825546 4.372334199873141 1.584426149333631  2.318763340897528 4.332366364685004 1.393799225435426  2.317283206911457 4.446521033020494 1.568482632695256  2.325886357374689 4.406598595105878 1.369686141480405  2.475566177083965 4.039705060255256 1.12007318044595  2.373384382157022 4.090997259126061 1.211247484201313  2.349153549584867 4.009149288340264 1.047201584865732  2.365940739387356 4.018535855599923 1.247190493252704  2.467569608094986 3.968697153074189 1.161801299301182  2.358397118795423 4.078505882131672 1.002865352459856  2.483548210839036 4.11070933674795 1.078315699116387  2.380808771087093 4.163447860095596 1.175279775537687  2.367670728694656 4.147853123660965 0.9584796901399619  2.491519977881637 4.181721537609747 1.036510291668403  2.388238778298599 4.235890293655541 1.139271241282413  2.376984689561735 4.217213481806972 0.9140205962625457  2.499504065393991 4.252765124719367 0.9946312788771979  2.395686590497218 4.308345635075262 1.103198605352946  3.653915386725586 4.231801916485614 2.372946868226776  3.549939795871898 4.327919980192213 2.166290264104556  3.677543951581779 4.283501033055547 2.200502925996338  3.531559329843568 4.255844684595282 2.154643827497839  3.092470891929891 3.921416429222536 1.585830086590383  3.082542910746165 3.879604579349708 1.435593730477143  3.090470552318378 3.956264304882251 1.402676053452444  3.100041380191451 4.000462966461861 1.565535497835198  3.098411825943014 4.032821839190577 1.369820639769062  3.107616908355263 4.079404082070946 1.545271841455199  3.106355163735554 4.10931047200398 1.33698175541838  3.115184973812625 4.158266309946673 1.525025272369176  3.11427958210338 4.185742844702918 1.30414491742269  3.122731781608628 4.237064851095996 1.50478711479744  3.122172426170517 4.262121646579479 1.271304573248436  3.130247723831832 4.315799435946941 1.484554378795844  3.129989131529634 4.338429653487758 1.23842413135667  3.137682460343204 4.394450878657817 1.464288770327177  2.479026530147378 4.004140519563579 2.360655055358905  2.474209205106387 3.989116910784032 2.518497675677448  2.599596721167602 3.982085677946185 2.420502409723984  2.608425856893569 4.050772035535102 2.428066657576303  2.483586044213898 4.056582653611043 2.527767777150448  2.487846639952106 4.072977689610798 2.366275121682658  2.617195064539969 4.119354484928551 2.435681411829941  2.492880159577567 4.123937983198792 2.537081735565025  2.496587725657866 4.141736225487158 2.371950660934822  2.625915694398504 4.187834528522152 2.443313455367598  2.502122501431157 4.191176315430861 2.546407622215531  2.505272352914959 4.210399794152516 2.377645323737837  2.634600951175105 4.25622138249325 2.450935167974691  2.511332550980254 4.258305427737445 2.555720167622411  2.513924462247128 4.278968813308092 2.383330064513384  2.643267716729138 4.324521844821421 2.458522114908496  2.520531754969742 4.325332359198433 2.564999671320288  2.522570776573911 4.34744718829856 2.388978009652117  2.65192770256256 4.3927464733226 2.466043800284172  2.529758024457526 4.39226532252666 2.574219461337246  2.531246683386859 4.415835104767713 2.394555765932863  3.207958267387788 3.930489510507605 1.676291477571344  3.234490431236319 3.895185419929818 1.52693704219477  3.245106761635908 3.973444561686672 1.501087841191332  3.217876050032126 4.009593441300937 1.66104177524973  3.255681007865786 4.051589106732084 1.475264213358139  3.22773726378738 4.088602764730705 1.645805517392539  3.266224566645272 4.129647987768003 1.449445677332711  3.237552243845318 4.167526875225911 1.630572690463463  3.276743445883217 4.207645560346077 1.423628806974789  3.247336967131659 4.246391257613315 1.615340256228778  3.287243703677127 4.285588761662095 1.397816639299647  3.257107388638673 4.325197100868761 1.600115629380667  3.297718769788592 4.363477088365837 1.371985978582611  3.266840395799467 4.403938592179665 1.584874586903703  2.251553744850396 4.042017486380335 2.013153874279778  2.284956404306805 4.038566050896942 2.138752941815341  2.375692651984524 4.02457400894105 2.015451782083523  2.384410022780154 4.096419967425221 2.014185501301291  2.294449406362914 4.108651547649915 2.13960364611229  2.260992642092908 4.113312253737861 2.011512657562841  2.393008780497234 4.168224603895079 2.01297
[...]
<PointData  Vectors="f_16"> 
<DataArray  type="Float64"  Name="f_16"  NumberOfComponents="3" format="ascii">7.9310352409804788e-02 -1.8112256703938533e-02 1.8166851001281777e-04  7.7689921766486508e-02 -2.0763369858181710e-02 -5.0478851887425069e-04  7.9349894433823898e-02 -1.8077238109480899e-02 -1.7307111630815111e-04  8.0930483427375063e-02 -1.8181499473812177e-02 4.1184233457242374e-04  7.9351461074564172e-02 -2.1179500210324415e-02 6.1850031717617111e-05  8.0897883621584205e-02 -1.8337497420092819e-02 6.8416899711297658e-04  8.2491599742348765e-02 -1.8586560252003222e-02 1.1273285370752379e-03  8.0993984077535552e-02 -2.1584567902184087e-02 5.4396719530993599e-04  8.2515788047747285e-02 -1.8329501963817569e-02 9.4075149570624372e-04  8.4048542911733831e-02 -1.8850333258056063e-02 1.5476570960790668e-03  8.2597702661559802e-02 -2.1980202363357494e-02 1.0130456918897167e-03  8.4059663222238901e-02 -1.8503468118766464e-02 1.4447072748648600e-03  8.5586642518513681e-02 -1.9135356005692820e-02 1.9652474444746110e-03  8.4194996974380473e-02 -2.2384895327616131e-02 1.4913283125849155e-03  8.5581211353308206e-02 -1.8704170646572892e-02 1.9430883790632963e-03  8.7095789473390972e-02 -1.8937293701129284e-02 2.4473015835797863e-03  8.5814213460341043e-02 -2.2816881672328537e-02 1.9848430174075784e-03  8.7123934391496211e-02 -1.9450514018501494e-02 2.3868733489788439e-03  8.8612909174833651e-02 -1.9208209700606861e-02 2.9674652643062612e-03  8.7470401544447365e-02 -2.3296295433608474e-02 2.5007207582555526e-03  8.8679500983107395e-02 -1.9801721868533691e-02 2.8221558100705673e-03  8.3798304937330689e-02 -9.1074145413357448e-03 -2.2110867345402504e-03  8.2754415991590030e-02 -1.0481796125131154e-02 -2.1699772787281851e-03  8.2843032734343666e-02 -9.9704388697312886e-03 -2.7421520389764721e-03  8.3560210696713488e-02 -9.5039683061479124e-03 -2.6205205961803203e-03  8.3613364698327988e-02 -1.0025064541056597e-02 -1.9200537159796889e-03  8.4511738569711142e-02 -8.6823747128017825e-03 -2.0728269073886194e-03  8.5256354407204762e-02 -8.3105027354172332e-03 -1.8895349385333110e-03  8.4488722806407388e-02 -9.6506524301897753e-03 -1.6265499190360165e-03  8.4302963373321563e-02 -9.0970063530049407e-03 -2.4396252937587521e-03  8.6003814398277867e-02 -7.9836219391342857e-03 -1.6764764169314404e-03  8.5360428966008040e-02 -9.3345983140896774e-03 -1.3041132124625944e-03  8.5041550038724142e-02 -8.7367223207822295e-03 -2.2216433000687495e-03  8.6734674190562841e-02 -7.6975577658523198e-03 -1.4435804023256026e-03  8.6213256564349472e-02 -9.0686968911435229e-03 -9.6348259990333999e-04  8.5762996432397348e-02 -8.4183555713477839e-03 -1.9807829087154080e-03  8.7433551670045170e-02 -7.4505355240939144e-03 -1.1986070626041853e-03  8.7035998191003452e-02 -8.8498024134311560e-03 -6.1142544202128911e-04  8.6456253815389864e-02 -8.1413497203203337e-03 -1.7250239957381777e-03  8.8086969748904162e-02 -7.2416457054836156e-03 -9.4700409802284970e-04  8.7817409664856697e-02 -8.6760372463974052e-03 -2.5298585856340890e-04  8.7107635154214533e-02 -7.9090781057480457e-03 -1.4589466246630364e-03  8.7271607000537071e-02 -5.7182730593531433e-03 -6.2213035120694366e-04  8.7305096207930616e-02 -5.7560773910038865e-03 -8.6263381376317243e-05  8.6306408307489063e-02 -6.8264213520160405e-03 -4.3297482773226151e-04  8.7067429787873241e-02 -6.5788228202923581e-03 -2.7121318090868204e-04  8.8029252754489848e-02 -5.5354102630900725e-03 2.8116542147849851e-05  8.7941252681220355e-02 -5.4687158084950000e-03 -5.2808708215837039e-04  8.7825441590373643e-02 -6.3615086043349910e-03 -9.2776507458865409e-05  8.8737334899747639e-02 -5.3417699494198402e-03 1.6248802147197317e-04  8.8602230234433393e-02 -5.2439712589074025e-03 -4.1382679315123426e-04  8.8575063289084710e-02 -6.1780984354275993e-03 9.7756518180997613e-05  8.9429157031060788e-02 -5.1798410378051142e-03 3.0939504922035253e-04  8.9251517140232647e-02 -5.0466326192206683e-03 -2.8543716918208993e-04  8.9310652561458009e-02 -6.0287744645250597e-03 2.9468318233879322e-04  9.0106881456051682e-02 -5.0503798020614284e-03 4.6183332367885838e-04  8.9886977491521039e-02 -4.8772576999373922e-03 -1.4917850580104889e-04  9.0026502916444845e-02 -5.9094087823828509e-03 4.9166916163534348e-04  9.0772210335313672e-02 -4.9505182373956839e-03 6.1293082306922966e-04  9.0506654711417084e-02 -4.7329921182537038e-03 -1.0981878434233304e-05  9.0715118042636406e-02 -5.8141102645520044e-03 6.8113688559055894e-04  9.1426601099464086e-02 -4.8703455859557794e-03 7.5558784869070512e-04  9.1108191304792030e-02 -4.6125447696939046e-03 1.2626282800993672e-04  8.3743091645394466e-02 -9.5560241892858871e-03 -1.6376956784851173e-03  8.4578642337642396e-02 -9.1515771212558536e-03 -1.4010160584672919e-03  8.5440847605753600e-02 -8.8113739088359899e-03 -1.1278015357501533e-03  8.6302716076250841e-02 -8.5248654334372995e-03 -8.3352969340801412e-04  8.7145483073028718e-02 -8.2846191676328451e-03 -5.2570255280349706e-04  8.7954811394367588e-02 -8.0870731451155552e-03 -2.1028957349424472e-04  8.8715708883599934e-02 -7.9311416879376314e-03 1.1084722622567108e-04  8.3026396961273202e-02 -1.1448611060726178e-02 -3.4209896732202282e-04  8.2114863521926665e-02 -1.2391695226668858e-02 -9.9172561574274102e-04  8.3288380818528671e-02 -1.0711349764799793e-02 -8.4083353521880572e-04  8.4303602824407006e-02 -1.0377167626411107e-02 -4.6927398594813632e-04  8.3257853766024223e-02 -1.2064973188532287e-02 -5.2654508922449976e-04  8.4136984970123702e-02 -1.1170077554807277e-02 5.9939386854716111e-05  8.5257921800607886e-02 -1.0958045253512858e-02 4.6561646513597186e-04  8.4404686672078913e-02 -1.1820824562840811e-02 -5.6320415499273113e-05  8.5335512232269858e-02 -1.0111937807137063e-02 -8.9695478701026397e-05  8.5541307842309941e-02 -1.1643542174438212e-02 4.1793900419815689e-04  8.6370195244339754e-02 -1.0803510133642832e-02 8.7252419975754596e-04  8.6363397010331439e-02 -9.9055431637749911e-03 2.9779693142595841e-04  8.7461853095925371e-02 -1.0699386402068687e-02 1.2792670744674688e-03  8.6657415993915451e-02 -1.1523228450558568e-02 8.9438945758126714e-04  8.7371717889021497e-02 -9.7513359348615908e-03 6.8903970479500482e-04  8.8522109626327894e-02 -1.0642499091674125e-02 1.6841319271885358e-03  8.7744532712558110e-02 -1.1455133497825514e-02 1.3716794493414360e-03  8.8346835809813548e-02 -9.6450742954476178e-03 1.0804183718354820e-03  8.9540713333879002e-02 -1.0630776082334660e-02 2.0856093767147193e-03  8.8794332027337317e-02 -1.1442791488048996e-02 1.8467564677945572e-03  8.9274704074437314e-02 -9.5838658581051620e-03 1.4684174812288841e-03  8.8294648364348222e-02 -4.6603538745378240e-03 -8.1449509242117167e-04  8.8405714445802600e-02 -4.6381258346448028e-03 -2.6339120642941862e-04  8.9029658239497725e-02 -4.4130148077245347e-03 -2.0228457856587384e-04  8.8870608010174823e-02 -4.4217609529651428e-03 -7.8490986329391062e-04  8.9633875353603953e-02 -4.2131258798941062e-03 -1.2071757052915234e-04  8.9431781560732684e-02 -4.2000065775688938e-03 -7.3140177383319805e-04  9.0221601397419873e-02 -4.0422332774040530e-03 -2.5224040765378653e-05  8.9980374752201608e-02 -4.0008198657045949e-03 -6.6229480605259545e-04  9.0796879625874585e-02 -3.9004091014981281e-03 7.7799173551166119e-05  9.0516995250472271e-02 -3.8255721009530621e-03 -5.8321166748062734e-04  9.1362778754396051e-02 -3.7859166940976863e-03 1.8203480807590759e-04  9.1043070240714688e-02 -3.6726478466112388e-03 -5.0013908123369753e-04  9.1923631546692544e-02 -3.6938612584509227e-03 2.8186339485159042e-04  9.1561231802997509e-02 -3.5379144420291803e-03 -4.1946613938906064e-04  8.8285328337534469e-02 -5.0790096493002852e-03 -2.0785291814490242e-03  8.9155840528475111e-02 -4.4114342580452810e-03 -1.6016429962498848e-03  8.9031681737575849e-02 -4.3164308046591176e-03 -2.2302594363944302e-03  8.8646872221989678e-02 -4.6435346663983327e-03 -1.6271221569722650e-03  8.7786932705224044e-02 -5.3278624845922076e-03 -2.0896476266910138e-03  8.9465448466513831e-02 -4.1027972470962957e-03 -2.2481692276963795e-03  8.8773387098140796e-02 -4.8454150882559941e-03 -2.0523145884787097e-03  8.9653799593069169e-02 -4.1974023164381060e-03 -1.5628170503881043e-03  8.9899614736206890e-02 -3.9006848229834927e-03 -2.2562644270024811e-03  8.9250127858258255e-02 -4.6237776024174934e-03 -2.0175813488171007e-03  9.0142803043505346e-02 -3.9999554502942927e-03 -1.5152455518686830e-03  9.0340192356041016e-02 -3.7044757630702160e-03 -2.2638281715558302e-03  8.9718037900331574e-02 -4.4104346915780123e-03 -1.9800810796841563e-03  9.0623753672118404e-02 -3.8066283831106043e-03 -1.4664162310017174e-03  8.3338842530412460e-02 -2.9597612501458440e-02 2.3978824969580056e-03  8.5291148235134659e-02 -2.4183314188617366e-02 2.9341938453965326e-03  8.3568765221263941e-02 -2.7457143327662189e-02 2.8276263086309673e-03  8.3694752670739433e-02 -2.3869011493474902e-02 2.0628841035353995e-03  8.1377101557337683e-02 -1.2337461619489251e-02 -2.2094409074749789e-03  8.1657991413872144e-02 -1.1494698368227040e-02 -2.7716089810441089e-03  8.2543016411774500e-02 -1.0997030469509865e-02 -2.5216980397549608e-03  8.2420779230696184e-02 -1.1883873725563225e-02 -1.8146193544933450e-03  8.3421359624534439e-02 -1.0586629516103620e-02 -2.2157147241537948e-03  8.3452576107920284e-02 -1.1522250771600512e-02 -1.3876033972690894e-03  8.4286295449527773e-02 -1.0235537198354438e-02 -1.8747234190835784e-03  8.4468024170522807e-02 -1.1232763913631883e-02 -9.3758131513538019e-04  8.5132262330646011e-02 -9.9348906691289329e-03 -1.5112504411788671e-03  8.5463213769299468e-02 -1.1002087321342871e-02 -4.7171709995744431e-04  8.5955426036846999e-02 -9.6832001936156056e-03 -1.1324243496803382e-03  8.6434456344091096e-02 -1.0825873216770235e-02 4.8281870848382305e-06  8.6751213754959186e-02 -9.4844414669406699e-03 -7.4406125894676872e-04  8.7377364586393849e-02 -1.0701188234940056e-02 4.8855828145111236e-04  8.6103255246150381e-02 -7.7847655371945136e-03 1.8417594135573408e-03  8.6065172108779217e-02 -8.1025050199869837e-03 2.3845216014002487e-03  8.4776540289370317e-02 -9.6256349497203190e-03 1.7284840598522960e-03  8.5928900954403087e-02 -9.5104632890828794e-03 1.9639495171708491e-03  8.7136788974330096e-02 -7.9882025376673306e-03 2.5590867571540486e-03  8.7117251565869747e-02 -7.6476804097314706e-03 2.0212136300655735e-03  8.7055700911940467e-02 -9.4462381633041801e-03 2.2078745512997201e-03  8.8175707837929315e-02 -7.9297286559455050e-03 2.7432345998823766e-03  8.8102861068659444e-02 -7.5574487583294587e-03 2.2147973335561776e-03  8.8158627416807536e-02 -9.4306109931660484e-03 2.4524379508759271e-03  8.9189774102116162e-02 -7.9240499829041702e-03 2.9271158351597969e-03  8.9065637745994505e-02 -7.5147817778328076e-03 2.4125877420326609e-03  8.9241975341555257e-02 -9.4606462440444163e-03 2.6926075572739992e-03  9.0186516811930004e-02 -7.9682796178715126e-03 3.1043511405320187e-03  9.0011474786190995e-02 -7.5186465825831097e-03 2.6075338542352246e-03  9.0310818477760957e-02 -9.5333092625389301e-03 2.9249526911801042e-03  9.1173995517877360e-02 -8.0597392980590963e-03 3.2699419901945884e-03  9.0946623061178941e-02 -7.5665168395236335e-03 2.7937574716138795e-03  9.1370708021295571e-02 -9.6450276944387587e-03 3.1470903388403190e-03  9.2161068381944919e-02 -8.1964502132561099e-03 3.4200881620040455e-03  9.1877847360324810e-02 -7.6555320387041081e-03 2.9653275579140164e-03  8.0055535237294265e-02 -1.4389775071904830e-02 -2.2066903115382066e-03  8.0028343499946822e-02 -1.3746748429839129e-02 -2.8584593567855037e-03  8.1125975095089065e-02 -1.3257418266455831e-02 -2.4175122555863335e-03  8.1279470756612973e-02 -1.3976540518773223e-02 -1.6677793168466605e-03  8.2186011735634654e-02 -1.2867658370788050e-02 -1.9391518422661688e-03  8.2468708410320321e-02 -1.3664599442324725e-02 -1.1044842932013891e-03  8.3214550740212487e-02 -1.2545783212278809e-02 -1.4362243966933638e-03  8.3625277742674600e-02 -1.3425583384175988e-02 -5.2961027037264812e-04  8.4222027188924173e-02 -1.2279763309119970e-02 -9.1502163850871445e-04  8.4758511446222581e-02 -1.3245426865403894e-02 5.5258225829782505e-05  8.5214826574826791e-02 -1.2067041474152050e-02 -3.7748139250772759e-04  8.5875685099657040e-02 -1.3121844240585850e-02 6.4975065107131594e-04  8.6199543022433822e-02 -1.1911918736113388e-02 1.7476923418800568e-04  8.6978241126662942e-02 -1.3059328169571198e-02 1.2532591615720702e-03  8.8466535238209215e-02 -4.7369613286700899e-03 1.0155789700823212e-03  8.8110295828542490e-02 -5.1881728743888612e-03 1.4168596231466880e-03  8.7304750584844368e-02 -5.9165015962801557e-03 8.5147290911311306e-04  8.8115847826228361e-02 -5.7448119783461496e-03 9.8452558086164761e-04  8.8897630831224803e-02 -5.0210605378455458e-03 1.5206093947036851e-03  8.9197114509540057e-02 -4.5576594743475928e-03 1.1065462502948917e-03  8.8898792824099807e-02 -5.6019622076187801e-03 1.1360181919434608e-03  8.9645576855653039e-02 -4.8945511746284545e-03 1.6435145892918577e-03  8.9888748562194989e-02 -4.4164772229880007e-03 1.2175028728733306e-03  8.9660774768919302e-02 -5.4962682552001339e-03 1.2975224109367197e-03  9.0369940564548334e-02 -4.8106212167316779e-03 1.7753620773992575e-03  9.0557560651776156e-02 -4.3148141224512229e-03 1.3387893648779054e-03  9.0408241311156670e-02 -5.4298183267140398e-03 1.4603189064004245e-03  9.1080714436574506e-02 -4.7700770967743196e-03 1.9070935436757406e-03  9.1213800492528654e-02 -4.2534751951380937e-03 1.4612950335741641e-03  9.1147038713129597e-02 -5.4007017030065956e-03 1.6159208392053956e-03  9.1786854342719271e-02 -4.7720817381169262e-03 2.0295552115849134e-03  9.1866750382330831e-02 -4.2312985182658752e-03 1.5757190971217166e-03  9.1884661240310833e-02 -5.4034263739203819e-03 1.7554510811967447e-03  9.2499752169063365e-02 -4.8151969957681302e-03 2.1332816596841063e-03  9.2525968480372964e-02 -4.2478579284193638e-03 1.6721099497530253e-03  8.2059294960675058e-02 -1.1696724359350166e-02 -2.9543914428133223e-03  8.2896099853140739e-02 -1.1301581615522603e-02 -2.6090534614085902e-03  8.3715497528220120e-02 -1.0955448804116296e-02 -2.2351375971220331e-03  8.4522419205641242e-02 -1.0656720939470565e-02 -1.8402188049254809e-03  8.5321488943427434e-02 -1.0410147439084848e-02 -1.4294596536244867e-03  8.5081919037737416e-02 -7.4835650560647216e-03 -2.5156385811368484e-03  8.3991072883335890e-02 -8.6380690882887495e-03 -2.6491984353871206e-03  8.4035108904417205e-02 -8.4140034160199040e-03 -3.0655364487592006e-03  8.4551083318644818e-02 -8.0328137661868255e-03 -3.1024882642198093e-03  8.4596689658534951e-02 -8.2313618122141670e-03 -2.6104955958755689e-03  8.5610454747513526e-02 -7.1314573387756455e-03 -2.5336371320593097e-03  8.5083763444091756e-02 -7.6765647354746537e-03 -3.0933174571672237e-03  8.5229146650268137e-02 -7.8610177416982563e-03 -2.5212546838748362e-03  8.6168315089430084e-02 -6.7986912054430106e-03 -2.5116684603355946e-03  8.5618759440827821e-02 -7.3413892324074243e-03 -3.0490883911556597e-03  8.5863504391142306e-02 -7.5231308084959545e-03 -2.3987470065982169e-03  7.2546210617315143e-02 -2.7221378072130178e-02 -1.8709830389315488e-03  7.2876497730846854e-02 -2.7467363461601918e-02 -2.1291348086217589e-03  7.5332286907491122e-02 -2.4123156747688605e-02 -1.2060264164260135e-03  7.6984700005364698e-02 -2.4893179509306029e-02 -7.5424929473891851e-04  8.7122214910010529e-02 -6.4975806897790657e-03 1.9317554116530257e-03  8.7156272999155668e-02 -6.6515348705980231e-03 2.3837565108439517e-03  8.8104831256499261e-02 -6.5070877756856485e-03 2.5230402684695498e-03  8.8038259633330909e-02 -6.3471719236778698e-03 2.0674744075905487e-03  8.9021013958067038e-02 -6.4142409648375222e-03 2.6749539331632241e-03  8.8921038520061169e-02 -6.2424546832245869e-03 2.2212437077165415e-03  8.9912179232578826e-02 -6.3748601872137337e-03 2.8289606037958108e-03  8.9779674030162557e-02 -6.1849600392170695e-03 2.3804018571182768e-03  9.0787248235116844e-02 -6.3868529189799661e-03 2.9779086834791696e-03  9.0622350383215991e-02 -6.1749387509323558e-03 2.5374458366543718e-03  9.1654783265343889e-02 -6.4477826626873720e-03 3.1160478486953499e-03  9.1457265178604516e-02 -6.2106268118982165e-03 2.6853561158941067e-03  9.2523483721858452e-02 -6.5557961722899454e-03 3.2380943571620269e-03  9.2294569332693532e-02 -6.2889400215623914e-03 2.8176566123935534e-03  8.5958677109118489e-02 -6.5641416758226061e-03 -2.4829043353458715e-03  8.5954367777773405e-02 -6.7138724733998636e-03 -1.9932619931157516e-03  8.6513138947817134e-02 -6.4024129395477041e-03 -1.9751783092010213e-03  8.6439326069757544e-02 -6.2751619020688602e-03 -2.5447829342721755e-03  8.7083197690942124e-02 -6.1044494449794028e-03 -1.9355431814881987e-03  8.0963687568112244e-02 -1.5500695313021630e-02 5.9488112222611444e-04  8.2447123439247288e-02 -1.5537951398555079e-02 1.0527950084804416e-03  8.3929816778338315e-02 -1.5627392586422793e-02 1.4787274687776835e-03  8.5380105891142186e-02 -1.5754223429491235e-02 1.8870338377063194e-03  8.6809085080204254e-02 -1.5914845389030718e-02 2.2874319159409432e-03  8.8227284841992493e-02 -1.6110524967529086e-02 2.6863489661882482e-03  8.9640966239894815e-02 -1.6345919495610418e-02 3.0889618778670164e-03  8.4689726101355792e-02 -8.2865445499001270e-03 -1.7067593562649255e-03  8.5404555630077483e-02 -7.9155797762444358e-03 -1.5648711156154862e-03  8.6146318507832831e-02 -7.5827245721782448e-03 -1.3889294392757264e-03  8.6890885230507128e-02 -7.2905833453497876e-03 -1.1877825731427631e-03  8.7619558007908965e-02 -7.0361301116055250e-03 -9.7098009061807563e-04  8.8316928091112398e-02 -6.8161736475763103e-03 -7.4602886639637514e-04  8.8967640660310904e-02 -6.6303008118640981e-03 -5.1929813349616189e-04  7.4820643555739585e-02 -2.4224526918013512e-02 -9.7531282043011760e-04  7.6447136686412509e-02 -2.5039548013821539e-02 -6.8159528866299662e-04  8.4394777551102293e-02 -9.3428841761989956e-03 -3.7104847446069368e-04  8.5340372046389848e-02 -9.0606177798853611e-03 -7.3672754011846716e-05  8.6303088147144075e-02 -8.8245450660338273e-03 2.3425008762701180e-04  8.7262652223851933e-02 -8.6367207946390148e-03 5.4947240126875017e-04  8.8204509698575892e-02 -8.4938516104888923e-03 8.6732624368313039e-04  8.9115211966584035e-02 -8.3914804503565019e-03 1.1837920588053273e-03  8.9975240021409053e-02 -8.3294535825962739e-03 1.4960195607101497e-03  8.9838066005084941e-02 -3.7044459638406273e-03 -1.8050522854080803e-03  9.0272029606388735e-02 -3.5136414388625271e-03 -1.8039103178103628e-03  9.0707795212696243e-02 -3.3377613166502029e-03 -1.7917308680021446e-03  9.1165305456933660e-02 -3.1681942695300828e-03 -1.7712266710912894e-03  8.9402822141274110e-02 -3.9494592909193266e-03 1.4164188235410754e-03  9.0073383667878495e-02 -3.7503495708303800e-03 1.4812100752018193e-03  9.0707796656824879e-02 -3.6003318156559451e-03 1.5667112746180652e-03  9.1317936565072436e-02 -3.4977729507508137e-03 1.6620439073066335e-03  9.1915930852859429e-02 -3.4410843500761973e-03 1.7571112530590832e-03  9.2511447122726381e-02 -3.4288608741263136e-03 1.8424327120597072e-03  9.3113440134857006e-02 -3.4602913565320611e-03 1.9087832935412935e-03  8.9960587502553993e-02 -3.7756860748923054e-03 -1.2303215599665032e-03  9.0447214207402246e-02 -3.5842721271227853e-03 -1.1895437014671582e-03  9.0926512176060320e-02 -3.4112863046539890e-03 -1.1419618107576023e-03  9.1402463338696005e-02 -3.2519713507678013e-03 -1.0941909579849137e-03  7.6028824160080652e-02 -2.2935225501509355e-02 -1.7423381109461344e-03  7.3840549903301203e-02 -2.6323173189517338e-02 -2.4814227355033128e-03  7.5898409548093418e-02 -2.2534887916519558e-02 -2.1242131224949003e-03  7.7696022805872220e-02 -2.3343257590090847e-02 -9.2791830905079604e-04  7.5495474079044306e-02 -2.7002078582473315e-02 -1.6881691952110888e-03  7.7519881540024663e-02 -2.2816975537486701e-02 -1.2110476995474539e-03  7.9317523957001965e-02 -2.3713810942643805e-02 -2.0190483247330913e-04  7.7063742900427737e-02 -2.7565028640402334e-02 -9.4865508708825823e-04  7.9108121